# LAMMPS data file made with a very cool script by Daniele Rapetti
3049 atoms
1 atom types
-40 40 xlo xhi
-40 40 ylo yhi
-40 40 zlo zhi

Masses

1 196.96655  # Au

Atoms  # atomic

1 1 -7.112516e-06 -8.39909216e-06 -25.92
2 1 -7.112516e-06 -8.39909216e-06 -23.04
3 1 -7.112516e-06 -8.39909216e-06 -20.16
4 1 -7.112516e-06 -8.39909216e-06 -17.28
5 1 -7.112516e-06 -8.39909216e-06 -14.4
6 1 -7.112516e-06 -8.39909216e-06 -11.52
7 1 -7.112516e-06 -8.39909216e-06 -8.64
8 1 -7.112516e-06 -8.39909216e-06 -5.76
9 1 -7.112516e-06 -8.39909216e-06 -2.88
10 1 -7.112516e-06 -8.39909216e-06 6.40863405e-18
11 1 -7.112516e-06 -8.39909216e-06 2.88
12 1 -7.112516e-06 -8.39909216e-06 5.76
13 1 -7.112516e-06 -8.39909216e-06 8.64
14 1 -7.112516e-06 -8.39909216e-06 11.52
15 1 -7.112516e-06 -8.39909216e-06 14.4
16 1 -7.112516e-06 -8.39909216e-06 17.28
17 1 -7.112516e-06 -8.39909216e-06 20.16
18 1 -7.112516e-06 -8.39909216e-06 23.04
19 1 -7.112516e-06 -8.39909216e-06 25.92
20 1 -1.40504795 -1.93388337 -24.48
21 1 -1.40504795 -1.93388337 -21.6
22 1 -1.40504795 -1.93388337 -18.72
23 1 -1.40504795 -1.93388337 -15.84
24 1 -1.40504795 -1.93388337 -12.96
25 1 -1.40504795 -1.93388337 -10.08
26 1 -1.40504795 -1.93388337 -7.2
27 1 -1.40504795 -1.93388337 -4.32
28 1 -1.40504795 -1.93388337 -1.44
29 1 -1.40504795 -1.93388337 1.44
30 1 -1.40504795 -1.93388337 4.32
31 1 -1.40504795 -1.93388337 7.2
32 1 -1.40504795 -1.93388337 10.08
33 1 -1.40504795 -1.93388337 12.96
34 1 -1.40504795 -1.93388337 15.84
35 1 -1.40504795 -1.93388337 18.72
36 1 -1.40504795 -1.93388337 21.6
37 1 -1.40504795 -1.93388337 24.48
38 1 1.40503373 -1.93388337 -24.48
39 1 1.40503373 -1.93388337 -21.6
40 1 1.40503373 -1.93388337 -18.72
41 1 1.40503373 -1.93388337 -15.84
42 1 1.40503373 -1.93388337 -12.96
43 1 1.40503373 -1.93388337 -10.08
44 1 1.40503373 -1.93388337 -7.2
45 1 1.40503373 -1.93388337 -4.32
46 1 1.40503373 -1.93388337 -1.44
47 1 1.40503373 -1.93388337 1.44
48 1 1.40503373 -1.93388337 4.32
49 1 1.40503373 -1.93388337 7.2
50 1 1.40503373 -1.93388337 10.08
51 1 1.40503373 -1.93388337 12.96
52 1 1.40503373 -1.93388337 15.84
53 1 1.40503373 -1.93388337 18.72
54 1 1.40503373 -1.93388337 21.6
55 1 1.40503373 -1.93388337 24.48
56 1 2.27339956 0.738662205 -24.48
57 1 2.27339956 0.738662205 -21.6
58 1 2.27339956 0.738662205 -18.72
59 1 2.27339956 0.738662205 -15.84
60 1 2.27339956 0.738662205 -12.96
61 1 2.27339956 0.738662205 -10.08
62 1 2.27339956 0.738662205 -7.2
63 1 2.27339956 0.738662205 -4.32
64 1 2.27339956 0.738662205 -1.44
65 1 2.27339956 0.738662205 1.44
66 1 2.27339956 0.738662205 4.32
67 1 2.27339956 0.738662205 7.2
68 1 2.27339956 0.738662205 10.08
69 1 2.27339956 0.738662205 12.96
70 1 2.27339956 0.738662205 15.84
71 1 2.27339956 0.738662205 18.72
72 1 2.27339956 0.738662205 21.6
73 1 2.27339956 0.738662205 24.48
74 1 -7.69374962e-07 2.3903916 -24.48
75 1 -7.69374962e-07 2.3903916 -21.6
76 1 -7.69374962e-07 2.3903916 -18.72
77 1 -7.69374962e-07 2.3903916 -15.84
78 1 -7.69374962e-07 2.3903916 -12.96
79 1 -7.69374962e-07 2.3903916 -10.08
80 1 -7.69374962e-07 2.3903916 -7.2
81 1 -7.69374962e-07 2.3903916 -4.32
82 1 -7.69374962e-07 2.3903916 -1.44
83 1 -7.69374962e-07 2.3903916 1.44
84 1 -7.69374962e-07 2.3903916 4.32
85 1 -7.69374962e-07 2.3903916 7.2
86 1 -7.69374962e-07 2.3903916 10.08
87 1 -7.69374962e-07 2.3903916 12.96
88 1 -7.69374962e-07 2.3903916 15.84
89 1 -7.69374962e-07 2.3903916 18.72
90 1 -7.69374962e-07 2.3903916 21.6
91 1 -7.69374962e-07 2.3903916 24.48
92 1 -2.27340986 0.73867427 -24.48
93 1 -2.27340986 0.73867427 -21.6
94 1 -2.27340986 0.73867427 -18.72
95 1 -2.27340986 0.73867427 -15.84
96 1 -2.27340986 0.73867427 -12.96
97 1 -2.27340986 0.73867427 -10.08
98 1 -2.27340986 0.73867427 -7.2
99 1 -2.27340986 0.73867427 -4.32
100 1 -2.27340986 0.73867427 -1.44
101 1 -2.27340986 0.73867427 1.44
102 1 -2.27340986 0.73867427 4.32
103 1 -2.27340986 0.73867427 7.2
104 1 -2.27340986 0.73867427 10.08
105 1 -2.27340986 0.73867427 12.96
106 1 -2.27340986 0.73867427 15.84
107 1 -2.27340986 0.73867427 18.72
108 1 -2.27340986 0.73867427 21.6
109 1 -2.27340986 0.73867427 24.48
110 1 -2.81008879 -3.86775834 -23.04
111 1 -2.81008879 -3.86775834 -20.16
112 1 -2.81008879 -3.86775834 -17.28
113 1 -2.81008879 -3.86775834 -14.4
114 1 -2.81008879 -3.86775834 -11.52
115 1 -2.81008879 -3.86775834 -8.64
116 1 -2.81008879 -3.86775834 -5.76
117 1 -2.81008879 -3.86775834 -2.88
118 1 -2.81008879 -3.86775834 6.40863405e-18
119 1 -2.81008879 -3.86775834 2.88
120 1 -2.81008879 -3.86775834 5.76
121 1 -2.81008879 -3.86775834 8.64
122 1 -2.81008879 -3.86775834 11.52
123 1 -2.81008879 -3.86775834 14.4
124 1 -2.81008879 -3.86775834 17.28
125 1 -2.81008879 -3.86775834 20.16
126 1 -2.81008879 -3.86775834 23.04
127 1 -7.112516e-06 -3.86775834 -23.04
128 1 -7.112516e-06 -3.86775834 -20.16
129 1 -7.112516e-06 -3.86775834 -17.28
130 1 -7.112516e-06 -3.86775834 -14.4
131 1 -7.112516e-06 -3.86775834 -11.52
132 1 -7.112516e-06 -3.86775834 -8.64
133 1 -7.112516e-06 -3.86775834 -5.76
134 1 -7.112516e-06 -3.86775834 -2.88
135 1 -7.112516e-06 -3.86775834 6.40863405e-18
136 1 -7.112516e-06 -3.86775834 2.88
137 1 -7.112516e-06 -3.86775834 5.76
138 1 -7.112516e-06 -3.86775834 8.64
139 1 -7.112516e-06 -3.86775834 11.52
140 1 -7.112516e-06 -3.86775834 14.4
141 1 -7.112516e-06 -3.86775834 17.28
142 1 -7.112516e-06 -3.86775834 20.16
143 1 -7.112516e-06 -3.86775834 23.04
144 1 2.81007457 -3.86775834 -23.04
145 1 2.81007457 -3.86775834 -20.16
146 1 2.81007457 -3.86775834 -17.28
147 1 2.81007457 -3.86775834 -14.4
148 1 2.81007457 -3.86775834 -11.52
149 1 2.81007457 -3.86775834 -8.64
150 1 2.81007457 -3.86775834 -5.76
151 1 2.81007457 -3.86775834 -2.88
152 1 2.81007457 -3.86775834 6.40863405e-18
153 1 2.81007457 -3.86775834 2.88
154 1 2.81007457 -3.86775834 5.76
155 1 2.81007457 -3.86775834 8.64
156 1 2.81007457 -3.86775834 11.52
157 1 2.81007457 -3.86775834 14.4
158 1 2.81007457 -3.86775834 17.28
159 1 2.81007457 -3.86775834 20.16
160 1 2.81007457 -3.86775834 23.04
161 1 3.6784404 -1.19521277 -23.04
162 1 3.6784404 -1.19521277 -20.16
163 1 3.6784404 -1.19521277 -17.28
164 1 3.6784404 -1.19521277 -14.4
165 1 3.6784404 -1.19521277 -11.52
166 1 3.6784404 -1.19521277 -8.64
167 1 3.6784404 -1.19521277 -5.76
168 1 3.6784404 -1.19521277 -2.88
169 1 3.6784404 -1.19521277 6.40863405e-18
170 1 3.6784404 -1.19521277 2.88
171 1 3.6784404 -1.19521277 5.76
172 1 3.6784404 -1.19521277 8.64
173 1 3.6784404 -1.19521277 11.52
174 1 3.6784404 -1.19521277 14.4
175 1 3.6784404 -1.19521277 17.28
176 1 3.6784404 -1.19521277 20.16
177 1 3.6784404 -1.19521277 23.04
178 1 4.54680624 1.47733281 -23.04
179 1 4.54680624 1.47733281 -20.16
180 1 4.54680624 1.47733281 -17.28
181 1 4.54680624 1.47733281 -14.4
182 1 4.54680624 1.47733281 -11.52
183 1 4.54680624 1.47733281 -8.64
184 1 4.54680624 1.47733281 -5.76
185 1 4.54680624 1.47733281 -2.88
186 1 4.54680624 1.47733281 6.40863405e-18
187 1 4.54680624 1.47733281 2.88
188 1 4.54680624 1.47733281 5.76
189 1 4.54680624 1.47733281 8.64
190 1 4.54680624 1.47733281 11.52
191 1 4.54680624 1.47733281 14.4
192 1 4.54680624 1.47733281 17.28
193 1 4.54680624 1.47733281 20.16
194 1 4.54680624 1.47733281 23.04
195 1 2.27340591 3.1290622 -23.04
196 1 2.27340591 3.1290622 -20.16
197 1 2.27340591 3.1290622 -17.28
198 1 2.27340591 3.1290622 -14.4
199 1 2.27340591 3.1290622 -11.52
200 1 2.27340591 3.1290622 -8.64
201 1 2.27340591 3.1290622 -5.76
202 1 2.27340591 3.1290622 -2.88
203 1 2.27340591 3.1290622 6.40863405e-18
204 1 2.27340591 3.1290622 2.88
205 1 2.27340591 3.1290622 5.76
206 1 2.27340591 3.1290622 8.64
207 1 2.27340591 3.1290622 11.52
208 1 2.27340591 3.1290622 14.4
209 1 2.27340591 3.1290622 17.28
210 1 2.27340591 3.1290622 20.16
211 1 2.27340591 3.1290622 23.04
212 1 5.5737661e-06 4.7807916 -23.04
213 1 5.5737661e-06 4.7807916 -20.16
214 1 5.5737661e-06 4.7807916 -17.28
215 1 5.5737661e-06 4.7807916 -14.4
216 1 5.5737661e-06 4.7807916 -11.52
217 1 5.5737661e-06 4.7807916 -8.64
218 1 5.5737661e-06 4.7807916 -5.76
219 1 5.5737661e-06 4.7807916 -2.88
220 1 5.5737661e-06 4.7807916 6.40863405e-18
221 1 5.5737661e-06 4.7807916 2.88
222 1 5.5737661e-06 4.7807916 5.76
223 1 5.5737661e-06 4.7807916 8.64
224 1 5.5737661e-06 4.7807916 11.52
225 1 5.5737661e-06 4.7807916 14.4
226 1 5.5737661e-06 4.7807916 17.28
227 1 5.5737661e-06 4.7807916 20.16
228 1 5.5737661e-06 4.7807916 23.04
229 1 -2.27340352 3.12907427 -23.04
230 1 -2.27340352 3.12907427 -20.16
231 1 -2.27340352 3.12907427 -17.28
232 1 -2.27340352 3.12907427 -14.4
233 1 -2.27340352 3.12907427 -11.52
234 1 -2.27340352 3.12907427 -8.64
235 1 -2.27340352 3.12907427 -5.76
236 1 -2.27340352 3.12907427 -2.88
237 1 -2.27340352 3.12907427 6.40863405e-18
238 1 -2.27340352 3.12907427 2.88
239 1 -2.27340352 3.12907427 5.76
240 1 -2.27340352 3.12907427 8.64
241 1 -2.27340352 3.12907427 11.52
242 1 -2.27340352 3.12907427 14.4
243 1 -2.27340352 3.12907427 17.28
244 1 -2.27340352 3.12907427 20.16
245 1 -2.27340352 3.12907427 23.04
246 1 -4.54681261 1.47735694 -23.04
247 1 -4.54681261 1.47735694 -20.16
248 1 -4.54681261 1.47735694 -17.28
249 1 -4.54681261 1.47735694 -14.4
250 1 -4.54681261 1.47735694 -11.52
251 1 -4.54681261 1.47735694 -8.64
252 1 -4.54681261 1.47735694 -5.76
253 1 -4.54681261 1.47735694 -2.88
254 1 -4.54681261 1.47735694 6.40863405e-18
255 1 -4.54681261 1.47735694 2.88
256 1 -4.54681261 1.47735694 5.76
257 1 -4.54681261 1.47735694 8.64
258 1 -4.54681261 1.47735694 11.52
259 1 -4.54681261 1.47735694 14.4
260 1 -4.54681261 1.47735694 17.28
261 1 -4.54681261 1.47735694 20.16
262 1 -4.54681261 1.47735694 23.04
263 1 -3.67846097 -1.19519324 -23.04
264 1 -3.67846097 -1.19519324 -20.16
265 1 -3.67846097 -1.19519324 -17.28
266 1 -3.67846097 -1.19519324 -14.4
267 1 -3.67846097 -1.19519324 -11.52
268 1 -3.67846097 -1.19519324 -8.64
269 1 -3.67846097 -1.19519324 -5.76
270 1 -3.67846097 -1.19519324 -2.88
271 1 -3.67846097 -1.19519324 6.40863405e-18
272 1 -3.67846097 -1.19519324 2.88
273 1 -3.67846097 -1.19519324 5.76
274 1 -3.67846097 -1.19519324 8.64
275 1 -3.67846097 -1.19519324 11.52
276 1 -3.67846097 -1.19519324 14.4
277 1 -3.67846097 -1.19519324 17.28
278 1 -3.67846097 -1.19519324 20.16
279 1 -3.67846097 -1.19519324 23.04
280 1 -4.21512963 -5.80163331 -21.6
281 1 -4.21512963 -5.80163331 -18.72
282 1 -4.21512963 -5.80163331 -15.84
283 1 -4.21512963 -5.80163331 -12.96
284 1 -4.21512963 -5.80163331 -10.08
285 1 -4.21512963 -5.80163331 -7.2
286 1 -4.21512963 -5.80163331 -4.32
287 1 -4.21512963 -5.80163331 -1.44
288 1 -4.21512963 -5.80163331 1.44
289 1 -4.21512963 -5.80163331 4.32
290 1 -4.21512963 -5.80163331 7.2
291 1 -4.21512963 -5.80163331 10.08
292 1 -4.21512963 -5.80163331 12.96
293 1 -4.21512963 -5.80163331 15.84
294 1 -4.21512963 -5.80163331 18.72
295 1 -4.21512963 -5.80163331 21.6
296 1 -1.40504795 -5.80163331 -21.6
297 1 -1.40504795 -5.80163331 -18.72
298 1 -1.40504795 -5.80163331 -15.84
299 1 -1.40504795 -5.80163331 -12.96
300 1 -1.40504795 -5.80163331 -10.08
301 1 -1.40504795 -5.80163331 -7.2
302 1 -1.40504795 -5.80163331 -4.32
303 1 -1.40504795 -5.80163331 -1.44
304 1 -1.40504795 -5.80163331 1.44
305 1 -1.40504795 -5.80163331 4.32
306 1 -1.40504795 -5.80163331 7.2
307 1 -1.40504795 -5.80163331 10.08
308 1 -1.40504795 -5.80163331 12.96
309 1 -1.40504795 -5.80163331 15.84
310 1 -1.40504795 -5.80163331 18.72
311 1 -1.40504795 -5.80163331 21.6
312 1 1.40503373 -5.80163331 -21.6
313 1 1.40503373 -5.80163331 -18.72
314 1 1.40503373 -5.80163331 -15.84
315 1 1.40503373 -5.80163331 -12.96
316 1 1.40503373 -5.80163331 -10.08
317 1 1.40503373 -5.80163331 -7.2
318 1 1.40503373 -5.80163331 -4.32
319 1 1.40503373 -5.80163331 -1.44
320 1 1.40503373 -5.80163331 1.44
321 1 1.40503373 -5.80163331 4.32
322 1 1.40503373 -5.80163331 7.2
323 1 1.40503373 -5.80163331 10.08
324 1 1.40503373 -5.80163331 12.96
325 1 1.40503373 -5.80163331 15.84
326 1 1.40503373 -5.80163331 18.72
327 1 1.40503373 -5.80163331 21.6
328 1 4.21511541 -5.80163331 -21.6
329 1 4.21511541 -5.80163331 -18.72
330 1 4.21511541 -5.80163331 -15.84
331 1 4.21511541 -5.80163331 -12.96
332 1 4.21511541 -5.80163331 -10.08
333 1 4.21511541 -5.80163331 -7.2
334 1 4.21511541 -5.80163331 -4.32
335 1 4.21511541 -5.80163331 -1.44
336 1 4.21511541 -5.80163331 1.44
337 1 4.21511541 -5.80163331 4.32
338 1 4.21511541 -5.80163331 7.2
339 1 4.21511541 -5.80163331 10.08
340 1 4.21511541 -5.80163331 12.96
341 1 4.21511541 -5.80163331 15.84
342 1 4.21511541 -5.80163331 18.72
343 1 4.21511541 -5.80163331 21.6
344 1 5.08348124 -3.12908773 -21.6
345 1 5.08348124 -3.12908773 -18.72
346 1 5.08348124 -3.12908773 -15.84
347 1 5.08348124 -3.12908773 -12.96
348 1 5.08348124 -3.12908773 -10.08
349 1 5.08348124 -3.12908773 -7.2
350 1 5.08348124 -3.12908773 -4.32
351 1 5.08348124 -3.12908773 -1.44
352 1 5.08348124 -3.12908773 1.44
353 1 5.08348124 -3.12908773 4.32
354 1 5.08348124 -3.12908773 7.2
355 1 5.08348124 -3.12908773 10.08
356 1 5.08348124 -3.12908773 12.96
357 1 5.08348124 -3.12908773 15.84
358 1 5.08348124 -3.12908773 18.72
359 1 5.08348124 -3.12908773 21.6
360 1 5.95184708 -0.456542161 -21.6
361 1 5.95184708 -0.456542161 -18.72
362 1 5.95184708 -0.456542161 -15.84
363 1 5.95184708 -0.456542161 -12.96
364 1 5.95184708 -0.456542161 -10.08
365 1 5.95184708 -0.456542161 -7.2
366 1 5.95184708 -0.456542161 -4.32
367 1 5.95184708 -0.456542161 -1.44
368 1 5.95184708 -0.456542161 1.44
369 1 5.95184708 -0.456542161 4.32
370 1 5.95184708 -0.456542161 7.2
371 1 5.95184708 -0.456542161 10.08
372 1 5.95184708 -0.456542161 12.96
373 1 5.95184708 -0.456542161 15.84
374 1 5.95184708 -0.456542161 18.72
375 1 5.95184708 -0.456542161 21.6
376 1 6.82021291 2.21600341 -21.6
377 1 6.82021291 2.21600341 -18.72
378 1 6.82021291 2.21600341 -15.84
379 1 6.82021291 2.21600341 -12.96
380 1 6.82021291 2.21600341 -10.08
381 1 6.82021291 2.21600341 -7.2
382 1 6.82021291 2.21600341 -4.32
383 1 6.82021291 2.21600341 -1.44
384 1 6.82021291 2.21600341 1.44
385 1 6.82021291 2.21600341 4.32
386 1 6.82021291 2.21600341 7.2
387 1 6.82021291 2.21600341 10.08
388 1 6.82021291 2.21600341 12.96
389 1 6.82021291 2.21600341 15.84
390 1 6.82021291 2.21600341 18.72
391 1 6.82021291 2.21600341 21.6
392 1 4.54681258 3.86773281 -21.6
393 1 4.54681258 3.86773281 -18.72
394 1 4.54681258 3.86773281 -15.84
395 1 4.54681258 3.86773281 -12.96
396 1 4.54681258 3.86773281 -10.08
397 1 4.54681258 3.86773281 -7.2
398 1 4.54681258 3.86773281 -4.32
399 1 4.54681258 3.86773281 -1.44
400 1 4.54681258 3.86773281 1.44
401 1 4.54681258 3.86773281 4.32
402 1 4.54681258 3.86773281 7.2
403 1 4.54681258 3.86773281 10.08
404 1 4.54681258 3.86773281 12.96
405 1 4.54681258 3.86773281 15.84
406 1 4.54681258 3.86773281 18.72
407 1 4.54681258 3.86773281 21.6
408 1 2.27341225 5.5194622 -21.6
409 1 2.27341225 5.5194622 -18.72
410 1 2.27341225 5.5194622 -15.84
411 1 2.27341225 5.5194622 -12.96
412 1 2.27341225 5.5194622 -10.08
413 1 2.27341225 5.5194622 -7.2
414 1 2.27341225 5.5194622 -4.32
415 1 2.27341225 5.5194622 -1.44
416 1 2.27341225 5.5194622 1.44
417 1 2.27341225 5.5194622 4.32
418 1 2.27341225 5.5194622 7.2
419 1 2.27341225 5.5194622 10.08
420 1 2.27341225 5.5194622 12.96
421 1 2.27341225 5.5194622 15.84
422 1 2.27341225 5.5194622 18.72
423 1 2.27341225 5.5194622 21.6
424 1 1.19169071e-05 7.1711916 -21.6
425 1 1.19169071e-05 7.1711916 -18.72
426 1 1.19169071e-05 7.1711916 -15.84
427 1 1.19169071e-05 7.1711916 -12.96
428 1 1.19169071e-05 7.1711916 -10.08
429 1 1.19169071e-05 7.1711916 -7.2
430 1 1.19169071e-05 7.1711916 -4.32
431 1 1.19169071e-05 7.1711916 -1.44
432 1 1.19169071e-05 7.1711916 1.44
433 1 1.19169071e-05 7.1711916 4.32
434 1 1.19169071e-05 7.1711916 7.2
435 1 1.19169071e-05 7.1711916 10.08
436 1 1.19169071e-05 7.1711916 12.96
437 1 1.19169071e-05 7.1711916 15.84
438 1 1.19169071e-05 7.1711916 18.72
439 1 1.19169071e-05 7.1711916 21.6
440 1 -2.27339718 5.51947427 -21.6
441 1 -2.27339718 5.51947427 -18.72
442 1 -2.27339718 5.51947427 -15.84
443 1 -2.27339718 5.51947427 -12.96
444 1 -2.27339718 5.51947427 -10.08
445 1 -2.27339718 5.51947427 -7.2
446 1 -2.27339718 5.51947427 -4.32
447 1 -2.27339718 5.51947427 -1.44
448 1 -2.27339718 5.51947427 1.44
449 1 -2.27339718 5.51947427 4.32
450 1 -2.27339718 5.51947427 7.2
451 1 -2.27339718 5.51947427 10.08
452 1 -2.27339718 5.51947427 12.96
453 1 -2.27339718 5.51947427 15.84
454 1 -2.27339718 5.51947427 18.72
455 1 -2.27339718 5.51947427 21.6
456 1 -4.54680627 3.86775694 -21.6
457 1 -4.54680627 3.86775694 -18.72
458 1 -4.54680627 3.86775694 -15.84
459 1 -4.54680627 3.86775694 -12.96
460 1 -4.54680627 3.86775694 -10.08
461 1 -4.54680627 3.86775694 -7.2
462 1 -4.54680627 3.86775694 -4.32
463 1 -4.54680627 3.86775694 -1.44
464 1 -4.54680627 3.86775694 1.44
465 1 -4.54680627 3.86775694 4.32
466 1 -4.54680627 3.86775694 7.2
467 1 -4.54680627 3.86775694 10.08
468 1 -4.54680627 3.86775694 12.96
469 1 -4.54680627 3.86775694 15.84
470 1 -4.54680627 3.86775694 18.72
471 1 -4.54680627 3.86775694 21.6
472 1 -6.82021537 2.21603961 -21.6
473 1 -6.82021537 2.21603961 -18.72
474 1 -6.82021537 2.21603961 -15.84
475 1 -6.82021537 2.21603961 -12.96
476 1 -6.82021537 2.21603961 -10.08
477 1 -6.82021537 2.21603961 -7.2
478 1 -6.82021537 2.21603961 -4.32
479 1 -6.82021537 2.21603961 -1.44
480 1 -6.82021537 2.21603961 1.44
481 1 -6.82021537 2.21603961 4.32
482 1 -6.82021537 2.21603961 7.2
483 1 -6.82021537 2.21603961 10.08
484 1 -6.82021537 2.21603961 12.96
485 1 -6.82021537 2.21603961 15.84
486 1 -6.82021537 2.21603961 18.72
487 1 -6.82021537 2.21603961 21.6
488 1 -5.95186372 -0.456510573 -21.6
489 1 -5.95186372 -0.456510573 -18.72
490 1 -5.95186372 -0.456510573 -15.84
491 1 -5.95186372 -0.456510573 -12.96
492 1 -5.95186372 -0.456510573 -10.08
493 1 -5.95186372 -0.456510573 -7.2
494 1 -5.95186372 -0.456510573 -4.32
495 1 -5.95186372 -0.456510573 -1.44
496 1 -5.95186372 -0.456510573 1.44
497 1 -5.95186372 -0.456510573 4.32
498 1 -5.95186372 -0.456510573 7.2
499 1 -5.95186372 -0.456510573 10.08
500 1 -5.95186372 -0.456510573 12.96
501 1 -5.95186372 -0.456510573 15.84
502 1 -5.95186372 -0.456510573 18.72
503 1 -5.95186372 -0.456510573 21.6
504 1 -5.08351207 -3.12906076 -21.6
505 1 -5.08351207 -3.12906076 -18.72
506 1 -5.08351207 -3.12906076 -15.84
507 1 -5.08351207 -3.12906076 -12.96
508 1 -5.08351207 -3.12906076 -10.08
509 1 -5.08351207 -3.12906076 -7.2
510 1 -5.08351207 -3.12906076 -4.32
511 1 -5.08351207 -3.12906076 -1.44
512 1 -5.08351207 -3.12906076 1.44
513 1 -5.08351207 -3.12906076 4.32
514 1 -5.08351207 -3.12906076 7.2
515 1 -5.08351207 -3.12906076 10.08
516 1 -5.08351207 -3.12906076 12.96
517 1 -5.08351207 -3.12906076 15.84
518 1 -5.08351207 -3.12906076 18.72
519 1 -5.08351207 -3.12906076 21.6
520 1 -5.62017047 -7.73550828 -20.16
521 1 -5.62017047 -7.73550828 -17.28
522 1 -5.62017047 -7.73550828 -14.4
523 1 -5.62017047 -7.73550828 -11.52
524 1 -5.62017047 -7.73550828 -8.64
525 1 -5.62017047 -7.73550828 -5.76
526 1 -5.62017047 -7.73550828 -2.88
527 1 -5.62017047 -7.73550828 6.40863405e-18
528 1 -5.62017047 -7.73550828 2.88
529 1 -5.62017047 -7.73550828 5.76
530 1 -5.62017047 -7.73550828 8.64
531 1 -5.62017047 -7.73550828 11.52
532 1 -5.62017047 -7.73550828 14.4
533 1 -5.62017047 -7.73550828 17.28
534 1 -5.62017047 -7.73550828 20.16
535 1 -2.81008879 -7.73550828 -20.16
536 1 -2.81008879 -7.73550828 -17.28
537 1 -2.81008879 -7.73550828 -14.4
538 1 -2.81008879 -7.73550828 -11.52
539 1 -2.81008879 -7.73550828 -8.64
540 1 -2.81008879 -7.73550828 -5.76
541 1 -2.81008879 -7.73550828 -2.88
542 1 -2.81008879 -7.73550828 6.40863405e-18
543 1 -2.81008879 -7.73550828 2.88
544 1 -2.81008879 -7.73550828 5.76
545 1 -2.81008879 -7.73550828 8.64
546 1 -2.81008879 -7.73550828 11.52
547 1 -2.81008879 -7.73550828 14.4
548 1 -2.81008879 -7.73550828 17.28
549 1 -2.81008879 -7.73550828 20.16
550 1 -7.112516e-06 -7.73550828 -20.16
551 1 -7.112516e-06 -7.73550828 -17.28
552 1 -7.112516e-06 -7.73550828 -14.4
553 1 -7.112516e-06 -7.73550828 -11.52
554 1 -7.112516e-06 -7.73550828 -8.64
555 1 -7.112516e-06 -7.73550828 -5.76
556 1 -7.112516e-06 -7.73550828 -2.88
557 1 -7.112516e-06 -7.73550828 6.40863405e-18
558 1 -7.112516e-06 -7.73550828 2.88
559 1 -7.112516e-06 -7.73550828 5.76
560 1 -7.112516e-06 -7.73550828 8.64
561 1 -7.112516e-06 -7.73550828 11.52
562 1 -7.112516e-06 -7.73550828 14.4
563 1 -7.112516e-06 -7.73550828 17.28
564 1 -7.112516e-06 -7.73550828 20.16
565 1 2.81007457 -7.73550828 -20.16
566 1 2.81007457 -7.73550828 -17.28
567 1 2.81007457 -7.73550828 -14.4
568 1 2.81007457 -7.73550828 -11.52
569 1 2.81007457 -7.73550828 -8.64
570 1 2.81007457 -7.73550828 -5.76
571 1 2.81007457 -7.73550828 -2.88
572 1 2.81007457 -7.73550828 6.40863405e-18
573 1 2.81007457 -7.73550828 2.88
574 1 2.81007457 -7.73550828 5.76
575 1 2.81007457 -7.73550828 8.64
576 1 2.81007457 -7.73550828 11.52
577 1 2.81007457 -7.73550828 14.4
578 1 2.81007457 -7.73550828 17.28
579 1 2.81007457 -7.73550828 20.16
580 1 5.62015625 -7.73550828 -20.16
581 1 5.62015625 -7.73550828 -17.28
582 1 5.62015625 -7.73550828 -14.4
583 1 5.62015625 -7.73550828 -11.52
584 1 5.62015625 -7.73550828 -8.64
585 1 5.62015625 -7.73550828 -5.76
586 1 5.62015625 -7.73550828 -2.88
587 1 5.62015625 -7.73550828 6.40863405e-18
588 1 5.62015625 -7.73550828 2.88
589 1 5.62015625 -7.73550828 5.76
590 1 5.62015625 -7.73550828 8.64
591 1 5.62015625 -7.73550828 11.52
592 1 5.62015625 -7.73550828 14.4
593 1 5.62015625 -7.73550828 17.28
594 1 5.62015625 -7.73550828 20.16
595 1 6.48852208 -5.0629627 -20.16
596 1 6.48852208 -5.0629627 -17.28
597 1 6.48852208 -5.0629627 -14.4
598 1 6.48852208 -5.0629627 -11.52
599 1 6.48852208 -5.0629627 -8.64
600 1 6.48852208 -5.0629627 -5.76
601 1 6.48852208 -5.0629627 -2.88
602 1 6.48852208 -5.0629627 6.40863405e-18
603 1 6.48852208 -5.0629627 2.88
604 1 6.48852208 -5.0629627 5.76
605 1 6.48852208 -5.0629627 8.64
606 1 6.48852208 -5.0629627 11.52
607 1 6.48852208 -5.0629627 14.4
608 1 6.48852208 -5.0629627 17.28
609 1 6.48852208 -5.0629627 20.16
610 1 7.35688792 -2.39041713 -20.16
611 1 7.35688792 -2.39041713 -17.28
612 1 7.35688792 -2.39041713 -14.4
613 1 7.35688792 -2.39041713 -11.52
614 1 7.35688792 -2.39041713 -8.64
615 1 7.35688792 -2.39041713 -5.76
616 1 7.35688792 -2.39041713 -2.88
617 1 7.35688792 -2.39041713 6.40863405e-18
618 1 7.35688792 -2.39041713 2.88
619 1 7.35688792 -2.39041713 5.76
620 1 7.35688792 -2.39041713 8.64
621 1 7.35688792 -2.39041713 11.52
622 1 7.35688792 -2.39041713 14.4
623 1 7.35688792 -2.39041713 17.28
624 1 7.35688792 -2.39041713 20.16
625 1 8.22525375 0.282128443 -20.16
626 1 8.22525375 0.282128443 -17.28
627 1 8.22525375 0.282128443 -14.4
628 1 8.22525375 0.282128443 -11.52
629 1 8.22525375 0.282128443 -8.64
630 1 8.22525375 0.282128443 -5.76
631 1 8.22525375 0.282128443 -2.88
632 1 8.22525375 0.282128443 6.40863405e-18
633 1 8.22525375 0.282128443 2.88
634 1 8.22525375 0.282128443 5.76
635 1 8.22525375 0.282128443 8.64
636 1 8.22525375 0.282128443 11.52
637 1 8.22525375 0.282128443 14.4
638 1 8.22525375 0.282128443 17.28
639 1 8.22525375 0.282128443 20.16
640 1 9.09361958 2.95467401 -20.16
641 1 9.09361958 2.95467401 -17.28
642 1 9.09361958 2.95467401 -14.4
643 1 9.09361958 2.95467401 -11.52
644 1 9.09361958 2.95467401 -8.64
645 1 9.09361958 2.95467401 -5.76
646 1 9.09361958 2.95467401 -2.88
647 1 9.09361958 2.95467401 6.40863405e-18
648 1 9.09361958 2.95467401 2.88
649 1 9.09361958 2.95467401 5.76
650 1 9.09361958 2.95467401 8.64
651 1 9.09361958 2.95467401 11.52
652 1 9.09361958 2.95467401 14.4
653 1 9.09361958 2.95467401 17.28
654 1 9.09361958 2.95467401 20.16
655 1 6.82021925 4.60640341 -20.16
656 1 6.82021925 4.60640341 -17.28
657 1 6.82021925 4.60640341 -14.4
658 1 6.82021925 4.60640341 -11.52
659 1 6.82021925 4.60640341 -8.64
660 1 6.82021925 4.60640341 -5.76
661 1 6.82021925 4.60640341 -2.88
662 1 6.82021925 4.60640341 6.40863405e-18
663 1 6.82021925 4.60640341 2.88
664 1 6.82021925 4.60640341 5.76
665 1 6.82021925 4.60640341 8.64
666 1 6.82021925 4.60640341 11.52
667 1 6.82021925 4.60640341 14.4
668 1 6.82021925 4.60640341 17.28
669 1 6.82021925 4.60640341 20.16
670 1 4.54681892 6.25813281 -20.16
671 1 4.54681892 6.25813281 -17.28
672 1 4.54681892 6.25813281 -14.4
673 1 4.54681892 6.25813281 -11.52
674 1 4.54681892 6.25813281 -8.64
675 1 4.54681892 6.25813281 -5.76
676 1 4.54681892 6.25813281 -2.88
677 1 4.54681892 6.25813281 6.40863405e-18
678 1 4.54681892 6.25813281 2.88
679 1 4.54681892 6.25813281 5.76
680 1 4.54681892 6.25813281 8.64
681 1 4.54681892 6.25813281 11.52
682 1 4.54681892 6.25813281 14.4
683 1 4.54681892 6.25813281 17.28
684 1 4.54681892 6.25813281 20.16
685 1 2.27341859 7.9098622 -20.16
686 1 2.27341859 7.9098622 -17.28
687 1 2.27341859 7.9098622 -14.4
688 1 2.27341859 7.9098622 -11.52
689 1 2.27341859 7.9098622 -8.64
690 1 2.27341859 7.9098622 -5.76
691 1 2.27341859 7.9098622 -2.88
692 1 2.27341859 7.9098622 6.40863405e-18
693 1 2.27341859 7.9098622 2.88
694 1 2.27341859 7.9098622 5.76
695 1 2.27341859 7.9098622 8.64
696 1 2.27341859 7.9098622 11.52
697 1 2.27341859 7.9098622 14.4
698 1 2.27341859 7.9098622 17.28
699 1 2.27341859 7.9098622 20.16
700 1 1.82600482e-05 9.5615916 -20.16
701 1 1.82600482e-05 9.5615916 -17.28
702 1 1.82600482e-05 9.5615916 -14.4
703 1 1.82600482e-05 9.5615916 -11.52
704 1 1.82600482e-05 9.5615916 -8.64
705 1 1.82600482e-05 9.5615916 -5.76
706 1 1.82600482e-05 9.5615916 -2.88
707 1 1.82600482e-05 9.5615916 6.40863405e-18
708 1 1.82600482e-05 9.5615916 2.88
709 1 1.82600482e-05 9.5615916 5.76
710 1 1.82600482e-05 9.5615916 8.64
711 1 1.82600482e-05 9.5615916 11.52
712 1 1.82600482e-05 9.5615916 14.4
713 1 1.82600482e-05 9.5615916 17.28
714 1 1.82600482e-05 9.5615916 20.16
715 1 -2.27339083 7.90987427 -20.16
716 1 -2.27339083 7.90987427 -17.28
717 1 -2.27339083 7.90987427 -14.4
718 1 -2.27339083 7.90987427 -11.52
719 1 -2.27339083 7.90987427 -8.64
720 1 -2.27339083 7.90987427 -5.76
721 1 -2.27339083 7.90987427 -2.88
722 1 -2.27339083 7.90987427 6.40863405e-18
723 1 -2.27339083 7.90987427 2.88
724 1 -2.27339083 7.90987427 5.76
725 1 -2.27339083 7.90987427 8.64
726 1 -2.27339083 7.90987427 11.52
727 1 -2.27339083 7.90987427 14.4
728 1 -2.27339083 7.90987427 17.28
729 1 -2.27339083 7.90987427 20.16
730 1 -4.54679993 6.25815694 -20.16
731 1 -4.54679993 6.25815694 -17.28
732 1 -4.54679993 6.25815694 -14.4
733 1 -4.54679993 6.25815694 -11.52
734 1 -4.54679993 6.25815694 -8.64
735 1 -4.54679993 6.25815694 -5.76
736 1 -4.54679993 6.25815694 -2.88
737 1 -4.54679993 6.25815694 6.40863405e-18
738 1 -4.54679993 6.25815694 2.88
739 1 -4.54679993 6.25815694 5.76
740 1 -4.54679993 6.25815694 8.64
741 1 -4.54679993 6.25815694 11.52
742 1 -4.54679993 6.25815694 14.4
743 1 -4.54679993 6.25815694 17.28
744 1 -4.54679993 6.25815694 20.16
745 1 -6.82020902 4.60643961 -20.16
746 1 -6.82020902 4.60643961 -17.28
747 1 -6.82020902 4.60643961 -14.4
748 1 -6.82020902 4.60643961 -11.52
749 1 -6.82020902 4.60643961 -8.64
750 1 -6.82020902 4.60643961 -5.76
751 1 -6.82020902 4.60643961 -2.88
752 1 -6.82020902 4.60643961 6.40863405e-18
753 1 -6.82020902 4.60643961 2.88
754 1 -6.82020902 4.60643961 5.76
755 1 -6.82020902 4.60643961 8.64
756 1 -6.82020902 4.60643961 11.52
757 1 -6.82020902 4.60643961 14.4
758 1 -6.82020902 4.60643961 17.28
759 1 -6.82020902 4.60643961 20.16
760 1 -9.09361812 2.95472228 -20.16
761 1 -9.09361812 2.95472228 -17.28
762 1 -9.09361812 2.95472228 -14.4
763 1 -9.09361812 2.95472228 -11.52
764 1 -9.09361812 2.95472228 -8.64
765 1 -9.09361812 2.95472228 -5.76
766 1 -9.09361812 2.95472228 -2.88
767 1 -9.09361812 2.95472228 6.40863405e-18
768 1 -9.09361812 2.95472228 2.88
769 1 -9.09361812 2.95472228 5.76
770 1 -9.09361812 2.95472228 8.64
771 1 -9.09361812 2.95472228 11.52
772 1 -9.09361812 2.95472228 14.4
773 1 -9.09361812 2.95472228 17.28
774 1 -9.09361812 2.95472228 20.16
775 1 -8.22526647 0.282172096 -20.16
776 1 -8.22526647 0.282172096 -17.28
777 1 -8.22526647 0.282172096 -14.4
778 1 -8.22526647 0.282172096 -11.52
779 1 -8.22526647 0.282172096 -8.64
780 1 -8.22526647 0.282172096 -5.76
781 1 -8.22526647 0.282172096 -2.88
782 1 -8.22526647 0.282172096 6.40863405e-18
783 1 -8.22526647 0.282172096 2.88
784 1 -8.22526647 0.282172096 5.76
785 1 -8.22526647 0.282172096 8.64
786 1 -8.22526647 0.282172096 11.52
787 1 -8.22526647 0.282172096 14.4
788 1 -8.22526647 0.282172096 17.28
789 1 -8.22526647 0.282172096 20.16
790 1 -7.35691482 -2.39037809 -20.16
791 1 -7.35691482 -2.39037809 -17.28
792 1 -7.35691482 -2.39037809 -14.4
793 1 -7.35691482 -2.39037809 -11.52
794 1 -7.35691482 -2.39037809 -8.64
795 1 -7.35691482 -2.39037809 -5.76
796 1 -7.35691482 -2.39037809 -2.88
797 1 -7.35691482 -2.39037809 6.40863405e-18
798 1 -7.35691482 -2.39037809 2.88
799 1 -7.35691482 -2.39037809 5.76
800 1 -7.35691482 -2.39037809 8.64
801 1 -7.35691482 -2.39037809 11.52
802 1 -7.35691482 -2.39037809 14.4
803 1 -7.35691482 -2.39037809 17.28
804 1 -7.35691482 -2.39037809 20.16
805 1 -6.48856317 -5.06292827 -20.16
806 1 -6.48856317 -5.06292827 -17.28
807 1 -6.48856317 -5.06292827 -14.4
808 1 -6.48856317 -5.06292827 -11.52
809 1 -6.48856317 -5.06292827 -8.64
810 1 -6.48856317 -5.06292827 -5.76
811 1 -6.48856317 -5.06292827 -2.88
812 1 -6.48856317 -5.06292827 6.40863405e-18
813 1 -6.48856317 -5.06292827 2.88
814 1 -6.48856317 -5.06292827 5.76
815 1 -6.48856317 -5.06292827 8.64
816 1 -6.48856317 -5.06292827 11.52
817 1 -6.48856317 -5.06292827 14.4
818 1 -6.48856317 -5.06292827 17.28
819 1 -6.48856317 -5.06292827 20.16
820 1 -7.02521131 -9.66938325 -18.72
821 1 -7.02521131 -9.66938325 -15.84
822 1 -7.02521131 -9.66938325 -12.96
823 1 -7.02521131 -9.66938325 -10.08
824 1 -7.02521131 -9.66938325 -7.2
825 1 -7.02521131 -9.66938325 -4.32
826 1 -7.02521131 -9.66938325 -1.44
827 1 -7.02521131 -9.66938325 1.44
828 1 -7.02521131 -9.66938325 4.32
829 1 -7.02521131 -9.66938325 7.2
830 1 -7.02521131 -9.66938325 10.08
831 1 -7.02521131 -9.66938325 12.96
832 1 -7.02521131 -9.66938325 15.84
833 1 -7.02521131 -9.66938325 18.72
834 1 -4.21512963 -9.66938325 -18.72
835 1 -4.21512963 -9.66938325 -15.84
836 1 -4.21512963 -9.66938325 -12.96
837 1 -4.21512963 -9.66938325 -10.08