# LAMMPS data file made with a very cool script by Daniele Rapetti
5083 atoms
1 atom types
-50 50 xlo xhi
-50 50 ylo yhi
-50 50 zlo zhi

Masses

1 196.96655  # Au

Atoms  # atomic

1 1 0 0 0
2 1 2.44987433 1.5141056 0
3 1 2.44987433 -1.5141056 0
4 1 -2.44987433 1.5141056 0
5 1 -2.44987433 -1.5141056 0
6 1 1.5141056 0 2.44987433
7 1 -1.5141056 0 2.44987433
8 1 1.5141056 0 -2.44987433
9 1 -1.5141056 0 -2.44987433
10 1 0 2.44987433 1.5141056
11 1 0 2.44987433 -1.5141056
12 1 0 -2.44987433 1.5141056
13 1 0 -2.44987433 -1.5141056
14 1 4.89974866 3.02821121 0
15 1 4.89974866 -3.02821121 0
16 1 -4.89974866 3.02821121 0
17 1 -4.89974866 -3.02821121 0
18 1 3.02821121 0 4.89974866
19 1 -3.02821121 0 4.89974866
20 1 3.02821121 0 -4.89974866
21 1 -3.02821121 0 -4.89974866
22 1 0 4.89974866 3.02821121
23 1 0 4.89974866 -3.02821121
24 1 0 -4.89974866 3.02821121
25 1 0 -4.89974866 -3.02821121
26 1 4.89974866 0 0
27 1 3.96397993 1.5141056 2.44987433
28 1 3.96397993 -1.5141056 2.44987433
29 1 3.96397993 1.5141056 -2.44987433
30 1 3.96397993 -1.5141056 -2.44987433
31 1 2.44987433 3.96397993 1.5141056
32 1 1.5141056 2.44987433 3.96397993
33 1 2.44987433 3.96397993 -1.5141056
34 1 1.5141056 2.44987433 -3.96397993
35 1 0 4.89974866 0
36 1 2.44987433 -3.96397993 1.5141056
37 1 1.5141056 -2.44987433 3.96397993
38 1 2.44987433 -3.96397993 -1.5141056
39 1 1.5141056 -2.44987433 -3.96397993
40 1 0 -4.89974866 0
41 1 -4.89974866 0 0
42 1 -3.96397993 1.5141056 2.44987433
43 1 -3.96397993 -1.5141056 2.44987433
44 1 -3.96397993 1.5141056 -2.44987433
45 1 -3.96397993 -1.5141056 -2.44987433
46 1 -2.44987433 3.96397993 1.5141056
47 1 -1.5141056 2.44987433 3.96397993
48 1 -2.44987433 3.96397993 -1.5141056
49 1 -1.5141056 2.44987433 -3.96397993
50 1 -2.44987433 -3.96397993 1.5141056
51 1 -1.5141056 -2.44987433 3.96397993
52 1 -2.44987433 -3.96397993 -1.5141056
53 1 -1.5141056 -2.44987433 -3.96397993
54 1 0 0 4.89974866
55 1 0 0 -4.89974866
56 1 7.34962298 4.54231681 0
57 1 7.34962298 -4.54231681 0
58 1 -7.34962298 4.54231681 0
59 1 -7.34962298 -4.54231681 0
60 1 4.54231681 0 7.34962298
61 1 -4.54231681 0 7.34962298
62 1 4.54231681 0 -7.34962298
63 1 -4.54231681 0 -7.34962298
64 1 0 7.34962298 4.54231681
65 1 0 7.34962298 -4.54231681
66 1 0 -7.34962298 4.54231681
67 1 0 -7.34962298 -4.54231681
68 1 7.34962298 1.5141056 0
69 1 7.34962298 -1.5141056 0
70 1 6.41385426 3.02821121 2.44987433
71 1 5.47808553 1.5141056 4.89974866
72 1 6.41385426 -3.02821121 2.44987433
73 1 5.47808553 -1.5141056 4.89974866
74 1 6.41385426 2.26093314e-16 2.44987433
75 1 6.41385426 3.02821121 -2.44987433
76 1 5.47808553 1.5141056 -4.89974866
77 1 6.41385426 -3.02821121 -2.44987433
78 1 5.47808553 -1.5141056 -4.89974866
79 1 6.41385426 2.26093314e-16 -2.44987433
80 1 4.89974866 5.47808553 1.5141056
81 1 2.44987433 6.41385426 3.02821121
82 1 3.02821121 2.44987433 6.41385426
83 1 1.5141056 4.89974866 5.47808553
84 1 3.96397993 3.96397993 3.96397993
85 1 4.89974866 5.47808553 -1.5141056
86 1 2.44987433 6.41385426 -3.02821121
87 1 3.02821121 2.44987433 -6.41385426
88 1 1.5141056 4.89974866 -5.47808553
89 1 3.96397993 3.96397993 -3.96397993
90 1 0 7.34962298 1.5141056
91 1 0 7.34962298 -1.5141056
92 1 2.44987433 6.41385426 0
93 1 4.89974866 -5.47808553 1.5141056
94 1 2.44987433 -6.41385426 3.02821121
95 1 3.02821121 -2.44987433 6.41385426
96 1 1.5141056 -4.89974866 5.47808553
97 1 3.96397993 -3.96397993 3.96397993
98 1 4.89974866 -5.47808553 -1.5141056
99 1 2.44987433 -6.41385426 -3.02821121
100 1 3.02821121 -2.44987433 -6.41385426
101 1 1.5141056 -4.89974866 -5.47808553
102 1 3.96397993 -3.96397993 -3.96397993
103 1 0 -7.34962298 1.5141056
104 1 0 -7.34962298 -1.5141056
105 1 2.44987433 -6.41385426 0
106 1 -7.34962298 1.5141056 0
107 1 -7.34962298 -1.5141056 0
108 1 -6.41385426 3.02821121 2.44987433
109 1 -5.47808553 1.5141056 4.89974866
110 1 -6.41385426 -3.02821121 2.44987433
111 1 -5.47808553 -1.5141056 4.89974866
112 1 -6.41385426 2.26093314e-16 2.44987433
113 1 -6.41385426 3.02821121 -2.44987433
114 1 -5.47808553 1.5141056 -4.89974866
115 1 -6.41385426 -3.02821121 -2.44987433
116 1 -5.47808553 -1.5141056 -4.89974866
117 1 -6.41385426 2.26093314e-16 -2.44987433
118 1 -4.89974866 5.47808553 1.5141056
119 1 -2.44987433 6.41385426 3.02821121
120 1 -3.02821121 2.44987433 6.41385426
121 1 -1.5141056 4.89974866 5.47808553
122 1 -3.96397993 3.96397993 3.96397993
123 1 -4.89974866 5.47808553 -1.5141056
124 1 -2.44987433 6.41385426 -3.02821121
125 1 -3.02821121 2.44987433 -6.41385426
126 1 -1.5141056 4.89974866 -5.47808553
127 1 -3.96397993 3.96397993 -3.96397993
128 1 -2.44987433 6.41385426 0
129 1 -4.89974866 -5.47808553 1.5141056
130 1 -2.44987433 -6.41385426 3.02821121
131 1 -3.02821121 -2.44987433 6.41385426
132 1 -1.5141056 -4.89974866 5.47808553
133 1 -3.96397993 -3.96397993 3.96397993
134 1 -4.89974866 -5.47808553 -1.5141056
135 1 -2.44987433 -6.41385426 -3.02821121
136 1 -3.02821121 -2.44987433 -6.41385426
137 1 -1.5141056 -4.89974866 -5.47808553
138 1 -3.96397993 -3.96397993 -3.96397993
139 1 -2.44987433 -6.41385426 0
140 1 1.5141056 0 7.34962298
141 1 -1.5141056 0 7.34962298
142 1 2.26093314e-16 2.44987433 6.41385426
143 1 2.26093314e-16 -2.44987433 6.41385426
144 1 1.5141056 0 -7.34962298
145 1 -1.5141056 0 -7.34962298
146 1 2.26093314e-16 2.44987433 -6.41385426
147 1 2.26093314e-16 -2.44987433 -6.41385426
148 1 9.79949731 6.05642241 0
149 1 9.79949731 -6.05642241 0
150 1 -9.79949731 6.05642241 0
151 1 -9.79949731 -6.05642241 0
152 1 6.05642241 0 9.79949731
153 1 -6.05642241 0 9.79949731
154 1 6.05642241 0 -9.79949731
155 1 -6.05642241 0 -9.79949731
156 1 0 9.79949731 6.05642241
157 1 0 9.79949731 -6.05642241
158 1 0 -9.79949731 6.05642241
159 1 0 -9.79949731 -6.05642241
160 1 9.79949731 3.02821121 0
161 1 9.79949731 0 0
162 1 9.79949731 -3.02821121 0
163 1 8.86372859 4.54231681 2.44987433
164 1 7.92795986 3.02821121 4.89974866
165 1 6.99219114 1.5141056 7.34962298
166 1 8.86372859 -4.54231681 2.44987433
167 1 7.92795986 -3.02821121 4.89974866
168 1 6.99219114 -1.5141056 7.34962298
169 1 8.86372859 1.5141056 2.44987433
170 1 8.86372859 -1.5141056 2.44987433
171 1 7.92795986 -4.52186628e-16 4.89974866
172 1 8.86372859 4.54231681 -2.44987433
173 1 7.92795986 3.02821121 -4.89974866
174 1 6.99219114 1.5141056 -7.34962298
175 1 8.86372859 -4.54231681 -2.44987433
176 1 7.92795986 -3.02821121 -4.89974866
177 1 6.99219114 -1.5141056 -7.34962298
178 1 8.86372859 1.5141056 -2.44987433
179 1 8.86372859 -1.5141056 -2.44987433
180 1 7.92795986 -4.52186628e-16 -4.89974866
181 1 7.34962298 6.99219114 1.5141056
182 1 4.89974866 7.92795986 3.02821121
183 1 2.44987433 8.86372859 4.54231681
184 1 4.54231681 2.44987433 8.86372859
185 1 3.02821121 4.89974866 7.92795986
186 1 1.5141056 7.34962298 6.99219114
187 1 6.41385426 5.47808553 3.96397993
188 1 5.47808553 3.96397993 6.41385426
189 1 3.96397993 6.41385426 5.47808553
190 1 7.34962298 6.99219114 -1.5141056
191 1 4.89974866 7.92795986 -3.02821121
192 1 2.44987433 8.86372859 -4.54231681
193 1 4.54231681 2.44987433 -8.86372859
194 1 3.02821121 4.89974866 -7.92795986
195 1 1.5141056 7.34962298 -6.99219114
196 1 6.41385426 5.47808553 -3.96397993
197 1 5.47808553 3.96397993 -6.41385426
198 1 3.96397993 6.41385426 -5.47808553
199 1 0 9.79949731 3.02821121
200 1 0 9.79949731 0
201 1 0 9.79949731 -3.02821121
202 1 4.89974866 7.92795986 0
203 1 2.44987433 8.86372859 1.5141056
204 1 2.44987433 8.86372859 -1.5141056
205 1 7.34962298 -6.99219114 1.5141056
206 1 4.89974866 -7.92795986 3.02821121
207 1 2.44987433 -8.86372859 4.54231681
208 1 4.54231681 -2.44987433 8.86372859
209 1 3.02821121 -4.89974866 7.92795986
210 1 1.5141056 -7.34962298 6.99219114
211 1 6.41385426 -5.47808553 3.96397993
212 1 5.47808553 -3.96397993 6.41385426
213 1 3.96397993 -6.41385426 5.47808553
214 1 7.34962298 -6.99219114 -1.5141056
215 1 4.89974866 -7.92795986 -3.02821121
216 1 2.44987433 -8.86372859 -4.54231681
217 1 4.54231681 -2.44987433 -8.86372859
218 1 3.02821121 -4.89974866 -7.92795986
219 1 1.5141056 -7.34962298 -6.99219114
220 1 6.41385426 -5.47808553 -3.96397993
221 1 5.47808553 -3.96397993 -6.41385426
222 1 3.96397993 -6.41385426 -5.47808553
223 1 0 -9.79949731 3.02821121
224 1 0 -9.79949731 0
225 1 0 -9.79949731 -3.02821121
226 1 4.89974866 -7.92795986 0
227 1 2.44987433 -8.86372859 1.5141056
228 1 2.44987433 -8.86372859 -1.5141056
229 1 -9.79949731 3.02821121 0
230 1 -9.79949731 0 0
231 1 -9.79949731 -3.02821121 0
232 1 -8.86372859 4.54231681 2.44987433
233 1 -7.92795986 3.02821121 4.89974866
234 1 -6.99219114 1.5141056 7.34962298
235 1 -8.86372859 -4.54231681 2.44987433
236 1 -7.92795986 -3.02821121 4.89974866
237 1 -6.99219114 -1.5141056 7.34962298
238 1 -8.86372859 1.5141056 2.44987433
239 1 -8.86372859 -1.5141056 2.44987433
240 1 -7.92795986 -4.52186628e-16 4.89974866
241 1 -8.86372859 4.54231681 -2.44987433
242 1 -7.92795986 3.02821121 -4.89974866
243 1 -6.99219114 1.5141056 -7.34962298
244 1 -8.86372859 -4.54231681 -2.44987433
245 1 -7.92795986 -3.02821121 -4.89974866
246 1 -6.99219114 -1.5141056 -7.34962298
247 1 -8.86372859 1.5141056 -2.44987433
248 1 -8.86372859 -1.5141056 -2.44987433
249 1 -7.92795986 -4.52186628e-16 -4.89974866
250 1 -7.34962298 6.99219114 1.5141056
251 1 -4.89974866 7.92795986 3.02821121
252 1 -2.44987433 8.86372859 4.54231681
253 1 -4.54231681 2.44987433 8.86372859
254 1 -3.02821121 4.89974866 7.92795986
255 1 -1.5141056 7.34962298 6.99219114
256 1 -6.41385426 5.47808553 3.96397993
257 1 -5.47808553 3.96397993 6.41385426
258 1 -3.96397993 6.41385426 5.47808553
259 1 -7.34962298 6.99219114 -1.5141056
260 1 -4.89974866 7.92795986 -3.02821121
261 1 -2.44987433 8.86372859 -4.54231681
262 1 -4.54231681 2.44987433 -8.86372859
263 1 -3.02821121 4.89974866 -7.92795986
264 1 -1.5141056 7.34962298 -6.99219114
265 1 -6.41385426 5.47808553 -3.96397993
266 1 -5.47808553 3.96397993 -6.41385426
267 1 -3.96397993 6.41385426 -5.47808553
268 1 -4.89974866 7.92795986 0
269 1 -2.44987433 8.86372859 1.5141056
270 1 -2.44987433 8.86372859 -1.5141056
271 1 -7.34962298 -6.99219114 1.5141056
272 1 -4.89974866 -7.92795986 3.02821121
273 1 -2.44987433 -8.86372859 4.54231681
274 1 -4.54231681 -2.44987433 8.86372859
275 1 -3.02821121 -4.89974866 7.92795986
276 1 -1.5141056 -7.34962298 6.99219114
277 1 -6.41385426 -5.47808553 3.96397993
278 1 -5.47808553 -3.96397993 6.41385426
279 1 -3.96397993 -6.41385426 5.47808553
280 1 -7.34962298 -6.99219114 -1.5141056
281 1 -4.89974866 -7.92795986 -3.02821121
282 1 -2.44987433 -8.86372859 -4.54231681
283 1 -4.54231681 -2.44987433 -8.86372859
284 1 -3.02821121 -4.89974866 -7.92795986
285 1 -1.5141056 -7.34962298 -6.99219114
286 1 -6.41385426 -5.47808553 -3.96397993
287 1 -5.47808553 -3.96397993 -6.41385426
288 1 -3.96397993 -6.41385426 -5.47808553
289 1 -4.89974866 -7.92795986 0
290 1 -2.44987433 -8.86372859 1.5141056
291 1 -2.44987433 -8.86372859 -1.5141056
292 1 3.02821121 0 9.79949731
293 1 0 0 9.79949731
294 1 -3.02821121 0 9.79949731
295 1 1.5141056 2.44987433 8.86372859
296 1 -1.5141056 2.44987433 8.86372859
297 1 -4.52186628e-16 4.89974866 7.92795986
298 1 1.5141056 -2.44987433 8.86372859
299 1 -1.5141056 -2.44987433 8.86372859
300 1 -4.52186628e-16 -4.89974866 7.92795986
301 1 3.02821121 0 -9.79949731
302 1 0 0 -9.79949731
303 1 -3.02821121 0 -9.79949731
304 1 1.5141056 2.44987433 -8.86372859
305 1 -1.5141056 2.44987433 -8.86372859
306 1 -4.52186628e-16 4.89974866 -7.92795986
307 1 1.5141056 -2.44987433 -8.86372859
308 1 -1.5141056 -2.44987433 -8.86372859
309 1 -4.52186628e-16 -4.89974866 -7.92795986
310 1 12.2493716 7.57052801 0
311 1 12.2493716 -7.57052801 0
312 1 -12.2493716 7.57052801 0
313 1 -12.2493716 -7.57052801 0
314 1 7.57052801 0 12.2493716
315 1 -7.57052801 0 12.2493716
316 1 7.57052801 0 -12.2493716
317 1 -7.57052801 0 -12.2493716
318 1 0 12.2493716 7.57052801
319 1 0 12.2493716 -7.57052801
320 1 0 -12.2493716 7.57052801
321 1 0 -12.2493716 -7.57052801
322 1 12.2493716 4.54231681 0
323 1 12.2493716 1.5141056 0
324 1 12.2493716 -1.5141056 0
325 1 12.2493716 -4.54231681 0
326 1 11.3136029 6.05642241 2.44987433
327 1 10.3778342 4.54231681 4.89974866
328 1 9.44206546 3.02821121 7.34962298
329 1 8.50629674 1.5141056 9.79949731
330 1 11.3136029 -6.05642241 2.44987433
331 1 10.3778342 -4.54231681 4.89974866
332 1 9.44206546 -3.02821121 7.34962298
333 1 8.50629674 -1.5141056 9.79949731
334 1 11.3136029 3.02821121 2.44987433
335 1 11.3136029 9.04373256e-16 2.44987433
336 1 10.3778342 1.5141056 4.89974866
337 1 11.3136029 -3.02821121 2.44987433
338 1 10.3778342 -1.5141056 4.89974866
339 1 9.44206546 0 7.34962298
340 1 11.3136029 6.05642241 -2.44987433
341 1 10.3778342 4.54231681 -4.89974866
342 1 9.44206546 3.02821121 -7.34962298
343 1 8.50629674 1.5141056 -9.79949731
344 1 11.3136029 -6.05642241 -2.44987433
345 1 10.3778342 -4.54231681 -4.89974866
346 1 9.44206546 -3.02821121 -7.34962298
347 1 8.50629674 -1.5141056 -9.79949731
348 1 11.3136029 3.02821121 -2.44987433
349 1 11.3136029 9.04373256e-16 -2.44987433
350 1 10.3778342 1.5141056 -4.89974866
351 1 11.3136029 -3.02821121 -2.44987433
352 1 10.3778342 -1.5141056 -4.89974866
353 1 9.44206546 0 -7.34962298
354 1 9.79949731 8.50629674 1.5141056
355 1 7.34962298 9.44206546 3.02821121
356 1 4.89974866 10.3778342 4.54231681
357 1 2.44987433 11.3136029 6.05642241
358 1 6.05642241 2.44987433 11.3136029
359 1 4.54231681 4.89974866 10.3778342
360 1 3.02821121 7.34962298 9.44206546
361 1 1.5141056 9.79949731 8.50629674
362 1 8.86372859 6.99219114 3.96397993
363 1 7.92795986 5.47808553 6.41385426
364 1 6.41385426 7.92795986 5.47808553
365 1 6.99219114 3.96397993 8.86372859
366 1 5.47808553 6.41385426 7.92795986
367 1 3.96397993 8.86372859 6.99219114
368 1 9.79949731 8.50629674 -1.5141056
369 1 7.34962298 9.44206546 -3.02821121
370 1 4.89974866 10.3778342 -4.54231681
371 1 2.44987433 11.3136029 -6.05642241
372 1 6.05642241 2.44987433 -11.3136029
373 1 4.54231681 4.89974866 -10.3778342
374 1 3.02821121 7.34962298 -9.44206546
375 1 1.5141056 9.79949731 -8.50629674
376 1 8.86372859 6.99219114 -3.96397993
377 1 7.92795986 5.47808553 -6.41385426
378 1 6.41385426 7.92795986 -5.47808553
379 1 6.99219114 3.96397993 -8.86372859
380 1 5.47808553 6.41385426 -7.92795986
381 1 3.96397993 8.86372859 -6.99219114
382 1 0 12.2493716 4.54231681
383 1 0 12.2493716 1.5141056
384 1 0 12.2493716 -1.5141056
385 1 0 12.2493716 -4.54231681
386 1 7.34962298 9.44206546 0
387 1 4.89974866 10.3778342 1.5141056
388 1 4.89974866 10.3778342 -1.5141056
389 1 2.44987433 11.3136029 3.02821121
390 1 2.44987433 11.3136029 0
391 1 2.44987433 11.3136029 -3.02821121
392 1 9.79949731 -8.50629674 1.5141056
393 1 7.34962298 -9.44206546 3.02821121
394 1 4.89974866 -10.3778342 4.54231681
395 1 2.44987433 -11.3136029 6.05642241
396 1 6.05642241 -2.44987433 11.3136029
397 1 4.54231681 -4.89974866 10.3778342
398 1 3.02821121 -7.34962298 9.44206546
399 1 1.5141056 -9.79949731 8.50629674
400 1 8.86372859 -6.99219114 3.96397993
401 1 7.92795986 -5.47808553 6.41385426
402 1 6.41385426 -7.92795986 5.47808553
403 1 6.99219114 -3.96397993 8.86372859
404 1 5.47808553 -6.41385426 7.92795986
405 1 3.96397993 -8.86372859 6.99219114
406 1 9.79949731 -8.50629674 -1.5141056
407 1 7.34962298 -9.44206546 -3.02821121
408 1 4.89974866 -10.3778342 -4.54231681
409 1 2.44987433 -11.3136029 -6.05642241
410 1 6.05642241 -2.44987433 -11.3136029
411 1 4.54231681 -4.89974866 -10.3778342
412 1 3.02821121 -7.34962298 -9.44206546
413 1 1.5141056 -9.79949731 -8.50629674
414 1 8.86372859 -6.99219114 -3.96397993
415 1 7.92795986 -5.47808553 -6.41385426
416 1 6.41385426 -7.92795986 -5.47808553
417 1 6.99219114 -3.96397993 -8.86372859
418 1 5.47808553 -6.41385426 -7.92795986
419 1 3.96397993 -8.86372859 -6.99219114
420 1 0 -12.2493716 4.54231681
421 1 0 -12.2493716 1.5141056
422 1 0 -12.2493716 -1.5141056
423 1 0 -12.2493716 -4.54231681
424 1 7.34962298 -9.44206546 0
425 1 4.89974866 -10.3778342 1.5141056
426 1 4.89974866 -10.3778342 -1.5141056
427 1 2.44987433 -11.3136029 3.02821121
428 1 2.44987433 -11.3136029 0
429 1 2.44987433 -11.3136029 -3.02821121
430 1 -12.2493716 4.54231681 0
431 1 -12.2493716 1.5141056 0
432 1 -12.2493716 -1.5141056 0
433 1 -12.2493716 -4.54231681 0
434 1 -11.3136029 6.05642241 2.44987433
435 1 -10.3778342 4.54231681 4.89974866
436 1 -9.44206546 3.02821121 7.34962298
437 1 -8.50629674 1.5141056 9.79949731
438 1 -11.3136029 -6.05642241 2.44987433
439 1 -10.3778342 -4.54231681 4.89974866
440 1 -9.44206546 -3.02821121 7.34962298
441 1 -8.50629674 -1.5141056 9.79949731
442 1 -11.3136029 3.02821121 2.44987433
443 1 -11.3136029 9.04373256e-16 2.44987433
444 1 -10.3778342 1.5141056 4.89974866
445 1 -11.3136029 -3.02821121 2.44987433
446 1 -10.3778342 -1.5141056 4.89974866
447 1 -9.44206546 0 7.34962298
448 1 -11.3136029 6.05642241 -2.44987433
449 1 -10.3778342 4.54231681 -4.89974866
450 1 -9.44206546 3.02821121 -7.34962298
451 1 -8.50629674 1.5141056 -9.79949731
452 1 -11.3136029 -6.05642241 -2.44987433
453 1 -10.3778342 -4.54231681 -4.89974866
454 1 -9.44206546 -3.02821121 -7.34962298
455 1 -8.50629674 -1.5141056 -9.79949731
456 1 -11.3136029 3.02821121 -2.44987433
457 1 -11.3136029 9.04373256e-16 -2.44987433
458 1 -10.3778342 1.5141056 -4.89974866
459 1 -11.3136029 -3.02821121 -2.44987433
460 1 -10.3778342 -1.5141056 -4.89974866
461 1 -9.44206546 0 -7.34962298
462 1 -9.79949731 8.50629674 1.5141056
463 1 -7.34962298 9.44206546 3.02821121
464 1 -4.89974866 10.3778342 4.54231681
465 1 -2.44987433 11.3136029 6.05642241
466 1 -6.05642241 2.44987433 11.3136029
467 1 -4.54231681 4.89974866 10.3778342
468 1 -3.02821121 7.34962298 9.44206546
469 1 -1.5141056 9.79949731 8.50629674
470 1 -8.86372859 6.99219114 3.96397993
471 1 -7.92795986 5.47808553 6.41385426
472 1 -6.41385426 7.92795986 5.47808553
473 1 -6.99219114 3.96397993 8.86372859
474 1 -5.47808553 6.41385426 7.92795986
475 1 -3.96397993 8.86372859 6.99219114
476 1 -9.79949731 8.50629674 -1.5141056
477 1 -7.34962298 9.44206546 -3.02821121
478 1 -4.89974866 10.3778342 -4.54231681
479 1 -2.44987433 11.3136029 -6.05642241
480 1 -6.05642241 2.44987433 -11.3136029
481 1 -4.54231681 4.89974866 -10.3778342
482 1 -3.02821121 7.34962298 -9.44206546
483 1 -1.5141056 9.79949731 -8.50629674
484 1 -8.86372859 6.99219114 -3.96397993
485 1 -7.92795986 5.47808553 -6.41385426
486 1 -6.41385426 7.92795986 -5.47808553
487 1 -6.99219114 3.96397993 -8.86372859
488 1 -5.47808553 6.41385426 -7.92795986
489 1 -3.96397993 8.86372859 -6.99219114
490 1 -7.34962298 9.44206546 0
491 1 -4.89974866 10.3778342 1.5141056
492 1 -4.89974866 10.3778342 -1.5141056
493 1 -2.44987433 11.3136029 3.02821121
494 1 -2.44987433 11.3136029 0
495 1 -2.44987433 11.3136029 -3.02821121
496 1 -9.79949731 -8.50629674 1.5141056
497 1 -7.34962298 -9.44206546 3.02821121
498 1 -4.89974866 -10.3778342 4.54231681
499 1 -2.44987433 -11.3136029 6.05642241
500 1 -6.05642241 -2.44987433 11.3136029
501 1 -4.54231681 -4.89974866 10.3778342
502 1 -3.02821121 -7.34962298 9.44206546
503 1 -1.5141056 -9.79949731 8.50629674
504 1 -8.86372859 -6.99219114 3.96397993
505 1 -7.92795986 -5.47808553 6.41385426
506 1 -6.41385426 -7.92795986 5.47808553
507 1 -6.99219114 -3.96397993 8.86372859
508 1 -5.47808553 -6.41385426 7.92795986
509 1 -3.96397993 -8.86372859 6.99219114
510 1 -9.79949731 -8.50629674 -1.5141056
511 1 -7.34962298 -9.44206546 -3.02821121
512 1 -4.89974866 -10.3778342 -4.54231681
513 1 -2.44987433 -11.3136029 -6.05642241
514 1 -6.05642241 -2.44987433 -11.3136029
515 1 -4.54231681 -4.89974866 -10.3778342
516 1 -3.02821121 -7.34962298 -9.44206546
517 1 -1.5141056 -9.79949731 -8.50629674
518 1 -8.86372859 -6.99219114 -3.96397993
519 1 -7.92795986 -5.47808553 -6.41385426
520 1 -6.41385426 -7.92795986 -5.47808553
521 1 -6.99219114 -3.96397993 -8.86372859
522 1 -5.47808553 -6.41385426 -7.92795986
523 1 -3.96397993 -8.86372859 -6.99219114
524 1 -7.34962298 -9.44206546 0
525 1 -4.89974866 -10.3778342 1.5141056
526 1 -4.89974866 -10.3778342 -1.5141056
527 1 -2.44987433 -11.3136029 3.02821121
528 1 -2.44987433 -11.3136029 0
529 1 -2.44987433 -11.3136029 -3.02821121
530 1 4.54231681 0 12.2493716
531 1 1.5141056 0 12.2493716
532 1 -1.5141056 0 12.2493716
533 1 -4.54231681 0 12.2493716
534 1 3.02821121 2.44987433 11.3136029
535 1 9.04373256e-16 2.44987433 11.3136029
536 1 1.5141056 4.89974866 10.3778342
537 1 -3.02821121 2.44987433 11.3136029
538 1 -1.5141056 4.89974866 10.3778342
539 1 0 7.34962298 9.44206546
540 1 3.02821121 -2.44987433 11.3136029
541 1 9.04373256e-16 -2.44987433 11.3136029
542 1 1.5141056 -4.89974866 10.3778342
543 1 -3.02821121 -2.44987433 11.3136029
544 1 -1.5141056 -4.89974866 10.3778342
545 1 0 -7.34962298 9.44206546
546 1 4.54231681 0 -12.2493716
547 1 1.5141056 0 -12.2493716
548 1 -1.5141056 0 -12.2493716
549 1 -4.54231681 0 -12.2493716
550 1 3.02821121 2.44987433 -11.3136029
551 1 9.04373256e-16 2.44987433 -11.3136029
552 1 1.5141056 4.89974866 -10.3778342
553 1 -3.02821121 2.44987433 -11.3136029
554 1 -1.5141056 4.89974866 -10.3778342
555 1 0 7.34962298 -9.44206546
556 1 3.02821121 -2.44987433 -11.3136029
557 1 9.04373256e-16 -2.44987433 -11.3136029
558 1 1.5141056 -4.89974866 -10.3778342
559 1 -3.02821121 -2.44987433 -11.3136029
560 1 -1.5141056 -4.89974866 -10.3778342
561 1 0 -7.34962298 -9.44206546
562 1 14.699246 9.08463362 0
563 1 14.699246 -9.08463362 0
564 1 -14.699246 9.08463362 0
565 1 -14.699246 -9.08463362 0
566 1 9.08463362 0 14.699246
567 1 -9.08463362 0 14.699246
568 1 9.08463362 0 -14.699246
569 1 -9.08463362 0 -14.699246
570 1 0 14.699246 9.08463362
571 1 0 14.699246 -9.08463362
572 1 0 -14.699246 9.08463362
573 1 0 -14.699246 -9.08463362
574 1 14.699246 6.05642241 0
575 1 14.699246 3.02821121 0
576 1 14.699246 0 0
577 1 14.699246 -3.02821121 0
578 1 14.699246 -6.05642241 0
579 1 13.7634772 7.57052801 2.44987433
580 1 12.8277085 6.05642241 4.89974866
581 1 11.8919398 4.54231681 7.34962298
582 1 10.9561711 3.02821121 9.79949731
583 1 10.0204023 1.5141056 12.2493716
584 1 13.7634772 -7.57052801 2.44987433
585 1 12.8277085 -6.05642241 4.89974866
586 1 11.8919398 -4.54231681 7.34962298
587 1 10.9561711 -3.02821121 9.79949731
588 1 10.0204023 -1.5141056 12.2493716
589 1 13.7634772 4.54231681 2.44987433
590 1 13.7634772 1.5141056 2.44987433
591 1 12.8277085 3.02821121 4.89974866
592 1 13.7634772 -1.5141056 2.44987433
593 1 12.8277085 4.52186628e-16 4.89974866
594 1 11.8919398 1.5141056 7.34962298
595 1 13.7634772 -4.54231681 2.44987433
596 1 12.8277085 -3.02821121 4.89974866
597 1 11.8919398 -1.5141056 7.34962298
598 1 10.9561711 0 9.79949731
599 1 13.7634772 7.57052801 -2.44987433
600 1 12.8277085 6.05642241 -4.89974866
601 1 11.8919398 4.54231681 -7.34962298
602 1 10.9561711 3.02821121 -9.79949731
603 1 10.0204023 1.5141056 -12.2493716
604 1 13.7634772 -7.57052801 -2.44987433
605 1 12.8277085 -6.05642241 -4.89974866
606 1 11.8919398 -4.54231681 -7.34962298
607 1 10.9561711 -3.02821121 -9.79949731
608 1 10.0204023 -1.5141056 -12.2493716
609 1 13.7634772 4.54231681 -2.44987433
610 1 13.7634772 1.5141056 -2.44987433
611 1 12.8277085 3.02821121 -4.89974866
612 1 13.7634772 -1.5141056 -2.44987433
613 1 12.8277085 4.52186628e-16 -4.89974866
614 1 11.8919398 1.5141056 -7.34962298
615 1 13.7634772 -4.54231681 -2.44987433
616 1 12.8277085 -3.02821121 -4.89974866
617 1 11.8919398 -1.5141056 -7.34962298
618 1 10.9561711 0 -9.79949731
619 1 12.2493716 10.0204023 1.5141056
620 1 9.79949731 10.9561711 3.02821121
621 1 7.34962298 11.8919398 4.54231681
622 1 4.89974866 12.8277085 6.05642241
623 1 2.44987433 13.7634772 7.57052801
624 1 7.57052801 2.44987433 13.7634772
625 1 6.05642241 4.89974866 12.8277085
626 1 4.54231681 7.34962298 11.8919398
627 1 3.02821121 9.79949731 10.9561711
628 1 1.5141056 12.2493716 10.0204023
629 1 11.3136029 8.50629674 3.96397993
630 1 10.3778342 6.99219114 6.41385426
631 1 8.86372859 9.44206546 5.47808553
632 1 9.44206546 5.47808553 8.86372859
633 1 7.92795986 7.92795986 7.92795986
634 1 6.41385426 10.3778342 6.99219114
635 1 8.50629674 3.96397993 11.3136029
636 1 6.99219114 6.41385426 10.3778342
637 1 5.47808553 8.86372859 9.44206546
638 1 3.96397993 11.3136029 8.50629674
639 1 12.2493716 10.0204023 -1.5141056
640 1 9.79949731 10.9561711 -3.02821121
641 1 7.34962298 11.8919398 -4.54231681
642 1 4.89974866 12.8277085 -6.05642241
643 1 2.44987433 13.7634772 -7.57052801
644 1 7.57052801 2.44987433 -13.7634772
645 1 6.05642241 4.89974866 -12.8277085
646 1 4.54231681 7.34962298 -11.8919398
647 1 3.02821121 9.79949731 -10.9561711
648 1 1.5141056 12.2493716 -10.0204023
649 1 11.3136029 8.50629674 -3.96397993
650 1 10.3778342 6.99219114 -6.41385426
651 1 8.86372859 9.44206546 -5.47808553
652 1 9.44206546 5.47808553 -8.86372859
653 1 7.92795986 7.92795986 -7.92795986
654 1 6.41385426 10.3778342 -6.99219114
655 1 8.50629674 3.96397993 -11.3136029
656 1 6.99219114 6.41385426 -10.3778342
657 1 5.47808553 8.86372859 -9.44206546
658 1 3.96397993 11.3136029 -8.50629674
659 1 0 14.699246 6.05642241
660 1 0 14.699246 3.02821121
661 1 0 14.699246 0
662 1 0 14.699246 -3.02821121
663 1 0 14.699246 -6.05642241
664 1 9.79949731 10.9561711 0
665 1 7.34962298 11.8919398 1.5141056
666 1 7.34962298 11.8919398 -1.5141056
667 1 4.89974866 12.8277085 3.02821121
668 1 4.89974866 12.8277085 0
669 1 4.89974866 12.8277085 -3.02821121
670 1 2.44987433 13.7634772 4.54231681
671 1 2.44987433 13.7634772 1.5141056
672 1 2.44987433 13.7634772 -1.5141056
673 1 2.44987433 13.7634772 -4.54231681
674 1 12.2493716 -10.0204023 1.5141056
675 1 9.79949731 -10.9561711 3.02821121
676 1 7.34962298 -11.8919398 4.54231681
677 1 4.89974866 -12.8277085 6.05642241
678 1 2.44987433 -13.7634772 7.57052801
679 1 7.57052801 -2.44987433 13.7634772
680 1 6.05642241 -4.89974866 12.8277085
681 1 4.54231681 -7.34962298 11.8919398
682 1 3.02821121 -9.79949731 10.9561711
683 1 1.5141056 -12.2493716 10.0204023
684 1 11.3136029 -8.50629674 3.96397993
685 1 10.3778342 -6.99219114 6.41385426
686 1 8.86372859 -9.44206546 5.47808553
687 1 9.44206546 -5.47808553 8.86372859
688 1 7.92795986 -7.92795986 7.92795986
689 1 6.41385426 -10.3778342 6.99219114
690 1 8.50629674 -3.96397993 11.3136029
691 1 6.99219114 -6.41385426 10.3778342
692 1 5.47808553 -8.86372859 9.44206546
693 1 3.96397993 -11.3136029 8.50629674
694 1 12.2493716 -10.0204023 -1.5141056
695 1 9.79949731 -10.9561711 -3.02821121
696 1 7.34962298 -11.8919398 -4.54231681
697 1 4.89974866 -12.8277085 -6.05642241
698 1 2.44987433 -13.7634772 -7.57052801
699 1 7.57052801 -2.44987433 -13.7634772
700 1 6.05642241 -4.89974866 -12.8277085
701 1 4.54231681 -7.34962298 -11.8919398
702 1 3.02821121 -9.79949731 -10.9561711
703 1 1.5141056 -12.2493716 -10.0204023
704 1 11.3136029 -8.50629674 -3.96397993
705 1 10.3778342 -6.99219114 -6.41385426
706 1 8.86372859 -9.44206546 -5.47808553
707 1 9.44206546 -5.47808553 -8.86372859
708 1 7.92795986 -7.92795986 -7.92795986
709 1 6.41385426 -10.3778342 -6.99219114
710 1 8.50629674 -3.96397993 -11.3136029
711 1 6.99219114 -6.41385426 -10.3778342
712 1 5.47808553 -8.86372859 -9.44206546
713 1 3.96397993 -11.3136029 -8.50629674
714 1 0 -14.699246 6.05642241
715 1 0 -14.699246 3.02821121
716 1 0 -14.699246 0
717 1 0 -14.699246 -3.02821121
718 1 0 -14.699246 -6.05642241
719 1 9.79949731 -10.9561711 0
720 1 7.34962298 -11.8919398 1.5141056
721 1 7.34962298 -11.8919398 -1.5141056
722 1 4.89974866 -12.8277085 3.02821121
723 1 4.89974866 -12.8277085 0
724 1 4.89974866 -12.8277085 -3.02821121
725 1 2.44987433 -13.7634772 4.54231681
726 1 2.44987433 -13.7634772 1.5141056
727 1 2.44987433 -13.7634772 -1.5141056
728 1 2.44987433 -13.7634772 -4.54231681
729 1 -14.699246 6.05642241 0
730 1 -14.699246 3.02821121 0
731 1 -14.699246 0 0
732 1 -14.699246 -3.02821121 0
733 1 -14.699246 -6.05642241 0
734 1 -13.7634772 7.57052801 2.44987433
735 1 -12.8277085 6.05642241 4.89974866
736 1 -11.8919398 4.54231681 7.34962298
737 1 -10.9561711 3.02821121 9.79949731
738 1 -10.0204023 1.5141056 12.2493716
739 1 -13.7634772 -7.57052801 2.44987433
740 1 -12.8277085 -6.05642241 4.89974866
741 1 -11.8919398 -4.54231681 7.34962298
742 1 -10.9561711 -3.02821121 9.79949731
743 1 -10.0204023 -1.5141056 12.2493716
744 1 -13.7634772 4.54231681 2.44987433
745 1 -13.7634772 1.5141056 2.44987433
746 1 -12.8277085 3.02821121 4.89974866
747 1 -13.7634772 -1.5141056 2.44987433
748 1 -12.8277085 4.52186628e-16 4.89974866
749 1 -11.8919398 1.5141056 7.34962298
750 1 -13.7634772 -4.54231681 2.44987433
751 1 -12.8277085 -3.02821121 4.89974866
752 1 -11.8919398 -1.5141056 7.34962298
753 1 -10.9561711 0 9.79949731
754 1 -13.7634772 7.57052801 -2.44987433
755 1 -12.8277085 6.05642241 -4.89974866
756 1 -11.8919398 4.54231681 -7.34962298
757 1 -10.9561711 3.02821121 -9.79949731
758 1 -10.0204023 1.5141056 -12.2493716
759 1 -13.7634772 -7.57052801 -2.44987433
760 1 -12.8277085 -6.05642241 -4.89974866
761 1 -11.8919398 -4.54231681 -7.34962298
762 1 -10.9561711 -3.02821121 -9.79949731
763 1 -10.0204023 -1.5141056 -12.2493716
764 1 -13.7634772 4.54231681 -2.44987433
765 1 -13.7634772 1.5141056 -2.44987433
766 1 -12.8277085 3.02821121 -4.89974866
767 1 -13.7634772 -1.5141056 -2.44987433
768 1 -12.8277085 4.52186628e-16 -4.89974866
769 1 -11.8919398 1.5141056 -7.34962298
770 1 -13.7634772 -4.54231681 -2.44987433
771 1 -12.8277085 -3.02821121 -4.89974866
772 1 -11.8919398 -1.5141056 -7.34962298
773 1 -10.9561711 0 -9.79949731
774 1 -12.2493716 10.0204023 1.5141056
775 1 -9.79949731 10.9561711 3.02821121
776 1 -7.34962298 11.8919398 4.54231681
777 1 -4.89974866 12.8277085 6.05642241
778 1 -2.44987433 13.7634772 7.57052801
779 1 -7.57052801 2.44987433 13.7634772
780 1 -6.05642241 4.89974866 12.8277085
781 1 -4.54231681 7.34962298 11.8919398
782 1 -3.02821121 9.79949731 10.9561711
783 1 -1.5141056 12.2493716 10.0204023
784 1 -11.3136029 8.50629674 3.96397993
785 1 -10.3778342 6.99219114 6.41385426
786 1 -8.86372859 9.44206546 5.47808553
787 1 -9.44206546 5.47808553 8.86372859
788 1 -7.92795986 7.92795986 7.92795986
789 1 -6.41385426 10.3778342 6.99219114
790 1 -8.50629674 3.96397993 11.3136029
791 1 -6.99219114 6.41385426 10.3778342