# LAMMPS data file made with a very cool script by Daniele Rapetti
4116 atoms
1 atom types
-40 40 xlo xhi
-40 40 ylo yhi
-40 40 zlo zhi

Masses

1 196.96655  # Au

Atoms  # atomic

1 1 -4.32 -27.36 0
2 1 -1.44 -27.36 0
3 1 1.44 -27.36 0
4 1 4.32 -27.36 0
5 1 -7.2 -24.48 0
6 1 -4.32 -24.48 0
7 1 -1.44 -24.48 0
8 1 1.44 -24.48 0
9 1 4.32 -24.48 0
10 1 7.2 -24.48 0
11 1 -10.08 -21.6 0
12 1 -7.2 -21.6 0
13 1 -4.32 -21.6 0
14 1 -1.44 -21.6 0
15 1 1.44 -21.6 0
16 1 4.32 -21.6 0
17 1 7.2 -21.6 0
18 1 10.08 -21.6 0
19 1 -12.96 -18.72 0
20 1 -10.08 -18.72 0
21 1 -7.2 -18.72 0
22 1 -4.32 -18.72 0
23 1 -1.44 -18.72 0
24 1 1.44 -18.72 0
25 1 4.32 -18.72 0
26 1 7.2 -18.72 0
27 1 10.08 -18.72 0
28 1 12.96 -18.72 0
29 1 -15.84 -15.84 0
30 1 -12.96 -15.84 0
31 1 -10.08 -15.84 0
32 1 -7.2 -15.84 0
33 1 -4.32 -15.84 0
34 1 -1.44 -15.84 0
35 1 1.44 -15.84 0
36 1 4.32 -15.84 0
37 1 7.2 -15.84 0
38 1 10.08 -15.84 0
39 1 12.96 -15.84 0
40 1 15.84 -15.84 0
41 1 -18.72 -12.96 0
42 1 -15.84 -12.96 0
43 1 -12.96 -12.96 0
44 1 -10.08 -12.96 0
45 1 -7.2 -12.96 0
46 1 -4.32 -12.96 0
47 1 -1.44 -12.96 0
48 1 1.44 -12.96 0
49 1 4.32 -12.96 0
50 1 7.2 -12.96 0
51 1 10.08 -12.96 0
52 1 12.96 -12.96 0
53 1 15.84 -12.96 0
54 1 18.72 -12.96 0
55 1 -21.6 -10.08 0
56 1 -18.72 -10.08 0
57 1 -15.84 -10.08 0
58 1 -12.96 -10.08 0
59 1 -10.08 -10.08 0
60 1 -7.2 -10.08 0
61 1 -4.32 -10.08 0
62 1 -1.44 -10.08 0
63 1 1.44 -10.08 0
64 1 4.32 -10.08 0
65 1 7.2 -10.08 0
66 1 10.08 -10.08 0
67 1 12.96 -10.08 0
68 1 15.84 -10.08 0
69 1 18.72 -10.08 0
70 1 21.6 -10.08 0
71 1 -24.48 -7.2 0
72 1 -21.6 -7.2 0
73 1 -18.72 -7.2 0
74 1 -15.84 -7.2 0
75 1 -12.96 -7.2 0
76 1 -10.08 -7.2 0
77 1 -7.2 -7.2 0
78 1 -4.32 -7.2 0
79 1 -1.44 -7.2 0
80 1 1.44 -7.2 0
81 1 4.32 -7.2 0
82 1 7.2 -7.2 0
83 1 10.08 -7.2 0
84 1 12.96 -7.2 0
85 1 15.84 -7.2 0
86 1 18.72 -7.2 0
87 1 21.6 -7.2 0
88 1 24.48 -7.2 0
89 1 -27.36 -4.32 0
90 1 -24.48 -4.32 0
91 1 -21.6 -4.32 0
92 1 -18.72 -4.32 0
93 1 -15.84 -4.32 0
94 1 -12.96 -4.32 0
95 1 -10.08 -4.32 0
96 1 -7.2 -4.32 0
97 1 -4.32 -4.32 0
98 1 -1.44 -4.32 0
99 1 1.44 -4.32 0
100 1 4.32 -4.32 0
101 1 7.2 -4.32 0
102 1 10.08 -4.32 0
103 1 12.96 -4.32 0
104 1 15.84 -4.32 0
105 1 18.72 -4.32 0
106 1 21.6 -4.32 0
107 1 24.48 -4.32 0
108 1 27.36 -4.32 0
109 1 -27.36 -1.44 0
110 1 -24.48 -1.44 0
111 1 -21.6 -1.44 0
112 1 -18.72 -1.44 0
113 1 -15.84 -1.44 0
114 1 -12.96 -1.44 0
115 1 -10.08 -1.44 0
116 1 -7.2 -1.44 0
117 1 -4.32 -1.44 0
118 1 -1.44 -1.44 0
119 1 1.44 -1.44 0
120 1 4.32 -1.44 0
121 1 7.2 -1.44 0
122 1 10.08 -1.44 0
123 1 12.96 -1.44 0
124 1 15.84 -1.44 0
125 1 18.72 -1.44 0
126 1 21.6 -1.44 0
127 1 24.48 -1.44 0
128 1 27.36 -1.44 0
129 1 -27.36 1.44 0
130 1 -24.48 1.44 0
131 1 -21.6 1.44 0
132 1 -18.72 1.44 0
133 1 -15.84 1.44 0
134 1 -12.96 1.44 0
135 1 -10.08 1.44 0
136 1 -7.2 1.44 0
137 1 -4.32 1.44 0
138 1 -1.44 1.44 0
139 1 1.44 1.44 0
140 1 4.32 1.44 0
141 1 7.2 1.44 0
142 1 10.08 1.44 0
143 1 12.96 1.44 0
144 1 15.84 1.44 0
145 1 18.72 1.44 0
146 1 21.6 1.44 0
147 1 24.48 1.44 0
148 1 27.36 1.44 0
149 1 -27.36 4.32 0
150 1 -24.48 4.32 0
151 1 -21.6 4.32 0
152 1 -18.72 4.32 0
153 1 -15.84 4.32 0
154 1 -12.96 4.32 0
155 1 -10.08 4.32 0
156 1 -7.2 4.32 0
157 1 -4.32 4.32 0
158 1 -1.44 4.32 0
159 1 1.44 4.32 0
160 1 4.32 4.32 0
161 1 7.2 4.32 0
162 1 10.08 4.32 0
163 1 12.96 4.32 0
164 1 15.84 4.32 0
165 1 18.72 4.32 0
166 1 21.6 4.32 0
167 1 24.48 4.32 0
168 1 27.36 4.32 0
169 1 -24.48 7.2 0
170 1 -21.6 7.2 0
171 1 -18.72 7.2 0
172 1 -15.84 7.2 0
173 1 -12.96 7.2 0
174 1 -10.08 7.2 0
175 1 -7.2 7.2 0
176 1 -4.32 7.2 0
177 1 -1.44 7.2 0
178 1 1.44 7.2 0
179 1 4.32 7.2 0
180 1 7.2 7.2 0
181 1 10.08 7.2 0
182 1 12.96 7.2 0
183 1 15.84 7.2 0
184 1 18.72 7.2 0
185 1 21.6 7.2 0
186 1 24.48 7.2 0
187 1 -21.6 10.08 0
188 1 -18.72 10.08 0
189 1 -15.84 10.08 0
190 1 -12.96 10.08 0
191 1 -10.08 10.08 0
192 1 -7.2 10.08 0
193 1 -4.32 10.08 0
194 1 -1.44 10.08 0
195 1 1.44 10.08 0
196 1 4.32 10.08 0
197 1 7.2 10.08 0
198 1 10.08 10.08 0
199 1 12.96 10.08 0
200 1 15.84 10.08 0
201 1 18.72 10.08 0
202 1 21.6 10.08 0
203 1 -18.72 12.96 0
204 1 -15.84 12.96 0
205 1 -12.96 12.96 0
206 1 -10.08 12.96 0
207 1 -7.2 12.96 0
208 1 -4.32 12.96 0
209 1 -1.44 12.96 0
210 1 1.44 12.96 0
211 1 4.32 12.96 0
212 1 7.2 12.96 0
213 1 10.08 12.96 0
214 1 12.96 12.96 0
215 1 15.84 12.96 0
216 1 18.72 12.96 0
217 1 -15.84 15.84 0
218 1 -12.96 15.84 0
219 1 -10.08 15.84 0
220 1 -7.2 15.84 0
221 1 -4.32 15.84 0
222 1 -1.44 15.84 0
223 1 1.44 15.84 0
224 1 4.32 15.84 0
225 1 7.2 15.84 0
226 1 10.08 15.84 0
227 1 12.96 15.84 0
228 1 15.84 15.84 0
229 1 -12.96 18.72 0
230 1 -10.08 18.72 0
231 1 -7.2 18.72 0
232 1 -4.32 18.72 0
233 1 -1.44 18.72 0
234 1 1.44 18.72 0
235 1 4.32 18.72 0
236 1 7.2 18.72 0
237 1 10.08 18.72 0
238 1 12.96 18.72 0
239 1 -10.08 21.6 0
240 1 -7.2 21.6 0
241 1 -4.32 21.6 0
242 1 -1.44 21.6 0
243 1 1.44 21.6 0
244 1 4.32 21.6 0
245 1 7.2 21.6 0
246 1 10.08 21.6 0
247 1 -7.2 24.48 0
248 1 -4.32 24.48 0
249 1 -1.44 24.48 0
250 1 1.44 24.48 0
251 1 4.32 24.48 0
252 1 7.2 24.48 0
253 1 -4.32 27.36 0
254 1 -1.44 27.36 0
255 1 1.44 27.36 0
256 1 4.32 27.36 0
257 1 -5.76 -25.92 2.03646753
258 1 -5.76 -25.92 -2.03646753
259 1 -2.88 -25.92 2.03646753
260 1 -2.88 -25.92 -2.03646753
261 1 2.84217094e-14 -25.92 2.03646753
262 1 2.84217094e-14 -25.92 -2.03646753
263 1 2.88 -25.92 2.03646753
264 1 2.88 -25.92 -2.03646753
265 1 5.76 -25.92 2.03646753
266 1 5.76 -25.92 -2.03646753
267 1 -8.64 -23.04 2.03646753
268 1 -8.64 -23.04 -2.03646753
269 1 -5.76 -23.04 2.03646753
270 1 -5.76 -23.04 -2.03646753
271 1 -2.88 -23.04 2.03646753
272 1 -2.88 -23.04 -2.03646753
273 1 2.84217094e-14 -23.04 2.03646753
274 1 2.84217094e-14 -23.04 -2.03646753
275 1 2.88 -23.04 2.03646753
276 1 2.88 -23.04 -2.03646753
277 1 5.76 -23.04 2.03646753
278 1 5.76 -23.04 -2.03646753
279 1 8.64 -23.04 2.03646753
280 1 8.64 -23.04 -2.03646753
281 1 -11.52 -20.16 2.03646753
282 1 -11.52 -20.16 -2.03646753
283 1 -8.64 -20.16 2.03646753
284 1 -8.64 -20.16 -2.03646753
285 1 -5.76 -20.16 2.03646753
286 1 -5.76 -20.16 -2.03646753
287 1 -2.88 -20.16 2.03646753
288 1 -2.88 -20.16 -2.03646753
289 1 2.84217094e-14 -20.16 2.03646753
290 1 2.84217094e-14 -20.16 -2.03646753
291 1 2.88 -20.16 2.03646753
292 1 2.88 -20.16 -2.03646753
293 1 5.76 -20.16 2.03646753
294 1 5.76 -20.16 -2.03646753
295 1 8.64 -20.16 2.03646753
296 1 8.64 -20.16 -2.03646753
297 1 11.52 -20.16 2.03646753
298 1 11.52 -20.16 -2.03646753
299 1 -14.4 -17.28 2.03646753
300 1 -14.4 -17.28 -2.03646753
301 1 -11.52 -17.28 2.03646753
302 1 -11.52 -17.28 -2.03646753
303 1 -8.64 -17.28 2.03646753
304 1 -8.64 -17.28 -2.03646753
305 1 -5.76 -17.28 2.03646753
306 1 -5.76 -17.28 -2.03646753
307 1 -2.88 -17.28 2.03646753
308 1 -2.88 -17.28 -2.03646753
309 1 2.84217094e-14 -17.28 2.03646753
310 1 2.84217094e-14 -17.28 -2.03646753
311 1 2.88 -17.28 2.03646753
312 1 2.88 -17.28 -2.03646753
313 1 5.76 -17.28 2.03646753
314 1 5.76 -17.28 -2.03646753
315 1 8.64 -17.28 2.03646753
316 1 8.64 -17.28 -2.03646753
317 1 11.52 -17.28 2.03646753
318 1 11.52 -17.28 -2.03646753
319 1 14.4 -17.28 2.03646753
320 1 14.4 -17.28 -2.03646753
321 1 -17.28 -14.4 2.03646753
322 1 -17.28 -14.4 -2.03646753
323 1 -14.4 -14.4 2.03646753
324 1 -14.4 -14.4 -2.03646753
325 1 -11.52 -14.4 2.03646753
326 1 -11.52 -14.4 -2.03646753
327 1 -8.64 -14.4 2.03646753
328 1 -8.64 -14.4 -2.03646753
329 1 -5.76 -14.4 2.03646753
330 1 -5.76 -14.4 -2.03646753
331 1 -2.88 -14.4 2.03646753
332 1 -2.88 -14.4 -2.03646753
333 1 2.84217094e-14 -14.4 2.03646753
334 1 2.84217094e-14 -14.4 -2.03646753
335 1 2.88 -14.4 2.03646753
336 1 2.88 -14.4 -2.03646753
337 1 5.76 -14.4 2.03646753
338 1 5.76 -14.4 -2.03646753
339 1 8.64 -14.4 2.03646753
340 1 8.64 -14.4 -2.03646753
341 1 11.52 -14.4 2.03646753
342 1 11.52 -14.4 -2.03646753
343 1 14.4 -14.4 2.03646753
344 1 14.4 -14.4 -2.03646753
345 1 17.28 -14.4 2.03646753
346 1 17.28 -14.4 -2.03646753
347 1 -20.16 -11.52 2.03646753
348 1 -20.16 -11.52 -2.03646753
349 1 -17.28 -11.52 2.03646753
350 1 -17.28 -11.52 -2.03646753
351 1 -14.4 -11.52 2.03646753
352 1 -14.4 -11.52 -2.03646753
353 1 -11.52 -11.52 2.03646753
354 1 -11.52 -11.52 -2.03646753
355 1 -8.64 -11.52 2.03646753
356 1 -8.64 -11.52 -2.03646753
357 1 -5.76 -11.52 2.03646753
358 1 -5.76 -11.52 -2.03646753
359 1 -2.88 -11.52 2.03646753
360 1 -2.88 -11.52 -2.03646753
361 1 2.84217094e-14 -11.52 2.03646753
362 1 2.84217094e-14 -11.52 -2.03646753
363 1 2.88 -11.52 2.03646753
364 1 2.88 -11.52 -2.03646753
365 1 5.76 -11.52 2.03646753
366 1 5.76 -11.52 -2.03646753
367 1 8.64 -11.52 2.03646753
368 1 8.64 -11.52 -2.03646753
369 1 11.52 -11.52 2.03646753
370 1 11.52 -11.52 -2.03646753
371 1 14.4 -11.52 2.03646753
372 1 14.4 -11.52 -2.03646753
373 1 17.28 -11.52 2.03646753
374 1 17.28 -11.52 -2.03646753
375 1 20.16 -11.52 2.03646753
376 1 20.16 -11.52 -2.03646753
377 1 -23.04 -8.64 2.03646753
378 1 -23.04 -8.64 -2.03646753
379 1 -20.16 -8.64 2.03646753
380 1 -20.16 -8.64 -2.03646753
381 1 -17.28 -8.64 2.03646753
382 1 -17.28 -8.64 -2.03646753
383 1 -14.4 -8.64 2.03646753
384 1 -14.4 -8.64 -2.03646753
385 1 -11.52 -8.64 2.03646753
386 1 -11.52 -8.64 -2.03646753
387 1 -8.64 -8.64 2.03646753
388 1 -8.64 -8.64 -2.03646753
389 1 -5.76 -8.64 2.03646753
390 1 -5.76 -8.64 -2.03646753
391 1 -2.88 -8.64 2.03646753
392 1 -2.88 -8.64 -2.03646753
393 1 2.84217094e-14 -8.64 2.03646753
394 1 2.84217094e-14 -8.64 -2.03646753
395 1 2.88 -8.64 2.03646753
396 1 2.88 -8.64 -2.03646753
397 1 5.76 -8.64 2.03646753
398 1 5.76 -8.64 -2.03646753
399 1 8.64 -8.64 2.03646753
400 1 8.64 -8.64 -2.03646753
401 1 11.52 -8.64 2.03646753
402 1 11.52 -8.64 -2.03646753
403 1 14.4 -8.64 2.03646753
404 1 14.4 -8.64 -2.03646753
405 1 17.28 -8.64 2.03646753
406 1 17.28 -8.64 -2.03646753
407 1 20.16 -8.64 2.03646753
408 1 20.16 -8.64 -2.03646753
409 1 23.04 -8.64 2.03646753
410 1 23.04 -8.64 -2.03646753
411 1 -25.92 -5.76 2.03646753
412 1 -25.92 -5.76 -2.03646753
413 1 -23.04 -5.76 2.03646753
414 1 -23.04 -5.76 -2.03646753
415 1 -20.16 -5.76 2.03646753
416 1 -20.16 -5.76 -2.03646753
417 1 -17.28 -5.76 2.03646753
418 1 -17.28 -5.76 -2.03646753
419 1 -14.4 -5.76 2.03646753
420 1 -14.4 -5.76 -2.03646753
421 1 -11.52 -5.76 2.03646753
422 1 -11.52 -5.76 -2.03646753
423 1 -8.64 -5.76 2.03646753
424 1 -8.64 -5.76 -2.03646753
425 1 -5.76 -5.76 2.03646753
426 1 -5.76 -5.76 -2.03646753
427 1 -2.88 -5.76 2.03646753
428 1 -2.88 -5.76 -2.03646753
429 1 2.84217094e-14 -5.76 2.03646753
430 1 2.84217094e-14 -5.76 -2.03646753
431 1 2.88 -5.76 2.03646753
432 1 2.88 -5.76 -2.03646753
433 1 5.76 -5.76 2.03646753
434 1 5.76 -5.76 -2.03646753
435 1 8.64 -5.76 2.03646753
436 1 8.64 -5.76 -2.03646753
437 1 11.52 -5.76 2.03646753
438 1 11.52 -5.76 -2.03646753
439 1 14.4 -5.76 2.03646753
440 1 14.4 -5.76 -2.03646753
441 1 17.28 -5.76 2.03646753
442 1 17.28 -5.76 -2.03646753
443 1 20.16 -5.76 2.03646753
444 1 20.16 -5.76 -2.03646753
445 1 23.04 -5.76 2.03646753
446 1 23.04 -5.76 -2.03646753
447 1 25.92 -5.76 2.03646753
448 1 25.92 -5.76 -2.03646753
449 1 -25.92 -2.88 2.03646753
450 1 -25.92 -2.88 -2.03646753
451 1 -23.04 -2.88 2.03646753
452 1 -23.04 -2.88 -2.03646753
453 1 -20.16 -2.88 2.03646753
454 1 -20.16 -2.88 -2.03646753
455 1 -17.28 -2.88 2.03646753
456 1 -17.28 -2.88 -2.03646753
457 1 -14.4 -2.88 2.03646753
458 1 -14.4 -2.88 -2.03646753
459 1 -11.52 -2.88 2.03646753
460 1 -11.52 -2.88 -2.03646753
461 1 -8.64 -2.88 2.03646753
462 1 -8.64 -2.88 -2.03646753
463 1 -5.76 -2.88 2.03646753
464 1 -5.76 -2.88 -2.03646753
465 1 -2.88 -2.88 2.03646753
466 1 -2.88 -2.88 -2.03646753
467 1 2.84217094e-14 -2.88 2.03646753
468 1 2.84217094e-14 -2.88 -2.03646753
469 1 2.88 -2.88 2.03646753
470 1 2.88 -2.88 -2.03646753
471 1 5.76 -2.88 2.03646753
472 1 5.76 -2.88 -2.03646753
473 1 8.64 -2.88 2.03646753
474 1 8.64 -2.88 -2.03646753
475 1 11.52 -2.88 2.03646753
476 1 11.52 -2.88 -2.03646753
477 1 14.4 -2.88 2.03646753
478 1 14.4 -2.88 -2.03646753
479 1 17.28 -2.88 2.03646753
480 1 17.28 -2.88 -2.03646753
481 1 20.16 -2.88 2.03646753
482 1 20.16 -2.88 -2.03646753
483 1 23.04 -2.88 2.03646753
484 1 23.04 -2.88 -2.03646753
485 1 25.92 -2.88 2.03646753
486 1 25.92 -2.88 -2.03646753
487 1 -25.92 7.46069873e-14 2.03646753
488 1 -25.92 7.46069873e-14 -2.03646753
489 1 -23.04 7.46069873e-14 2.03646753
490 1 -23.04 7.46069873e-14 -2.03646753
491 1 -20.16 7.46069873e-14 2.03646753
492 1 -20.16 7.46069873e-14 -2.03646753
493 1 -17.28 7.46069873e-14 2.03646753
494 1 -17.28 7.46069873e-14 -2.03646753
495 1 -14.4 7.46069873e-14 2.03646753
496 1 -14.4 7.46069873e-14 -2.03646753
497 1 -11.52 7.46069873e-14 2.03646753
498 1 -11.52 7.46069873e-14 -2.03646753
499 1 -8.64 7.46069873e-14 2.03646753
500 1 -8.64 7.46069873e-14 -2.03646753
501 1 -5.76 7.46069873e-14 2.03646753
502 1 -5.76 7.46069873e-14 -2.03646753
503 1 -2.88 7.46069873e-14 2.03646753
504 1 -2.88 7.46069873e-14 -2.03646753
505 1 2.84217094e-14 7.46069873e-14 2.03646753
506 1 2.84217094e-14 7.46069873e-14 -2.03646753
507 1 2.88 7.46069873e-14 2.03646753
508 1 2.88 7.46069873e-14 -2.03646753
509 1 5.76 7.46069873e-14 2.03646753
510 1 5.76 7.46069873e-14 -2.03646753
511 1 8.64 7.46069873e-14 2.03646753
512 1 8.64 7.46069873e-14 -2.03646753
513 1 11.52 7.46069873e-14 2.03646753
514 1 11.52 7.46069873e-14 -2.03646753
515 1 14.4 7.46069873e-14 2.03646753
516 1 14.4 7.46069873e-14 -2.03646753
517 1 17.28 7.46069873e-14 2.03646753
518 1 17.28 7.46069873e-14 -2.03646753
519 1 20.16 7.46069873e-14 2.03646753
520 1 20.16 7.46069873e-14 -2.03646753
521 1 23.04 7.46069873e-14 2.03646753
522 1 23.04 7.46069873e-14 -2.03646753
523 1 25.92 7.46069873e-14 2.03646753
524 1 25.92 7.46069873e-14 -2.03646753
525 1 -25.92 2.88 2.03646753
526 1 -25.92 2.88 -2.03646753
527 1 -23.04 2.88 2.03646753
528 1 -23.04 2.88 -2.03646753
529 1 -20.16 2.88 2.03646753
530 1 -20.16 2.88 -2.03646753
531 1 -17.28 2.88 2.03646753
532 1 -17.28 2.88 -2.03646753
533 1 -14.4 2.88 2.03646753
534 1 -14.4 2.88 -2.03646753
535 1 -11.52 2.88 2.03646753
536 1 -11.52 2.88 -2.03646753
537 1 -8.64 2.88 2.03646753
538 1 -8.64 2.88 -2.03646753
539 1 -5.76 2.88 2.03646753
540 1 -5.76 2.88 -2.03646753
541 1 -2.88 2.88 2.03646753
542 1 -2.88 2.88 -2.03646753
543 1 2.84217094e-14 2.88 2.03646753
544 1 2.84217094e-14 2.88 -2.03646753
545 1 2.88 2.88 2.03646753
546 1 2.88 2.88 -2.03646753
547 1 5.76 2.88 2.03646753
548 1 5.76 2.88 -2.03646753
549 1 8.64 2.88 2.03646753
550 1 8.64 2.88 -2.03646753
551 1 11.52 2.88 2.03646753
552 1 11.52 2.88 -2.03646753
553 1 14.4 2.88 2.03646753
554 1 14.4 2.88 -2.03646753
555 1 17.28 2.88 2.03646753
556 1 17.28 2.88 -2.03646753
557 1 20.16 2.88 2.03646753
558 1 20.16 2.88 -2.03646753
559 1 23.04 2.88 2.03646753
560 1 23.04 2.88 -2.03646753
561 1 25.92 2.88 2.03646753
562 1 25.92 2.88 -2.03646753
563 1 -25.92 5.76 2.03646753
564 1 -25.92 5.76 -2.03646753
565 1 -23.04 5.76 2.03646753
566 1 -23.04 5.76 -2.03646753
567 1 -20.16 5.76 2.03646753
568 1 -20.16 5.76 -2.03646753
569 1 -17.28 5.76 2.03646753
570 1 -17.28 5.76 -2.03646753
571 1 -14.4 5.76 2.03646753
572 1 -14.4 5.76 -2.03646753
573 1 -11.52 5.76 2.03646753
574 1 -11.52 5.76 -2.03646753
575 1 -8.64 5.76 2.03646753
576 1 -8.64 5.76 -2.03646753
577 1 -5.76 5.76 2.03646753
578 1 -5.76 5.76 -2.03646753
579 1 -2.88 5.76 2.03646753
580 1 -2.88 5.76 -2.03646753
581 1 2.84217094e-14 5.76 2.03646753
582 1 2.84217094e-14 5.76 -2.03646753
583 1 2.88 5.76 2.03646753
584 1 2.88 5.76 -2.03646753
585 1 5.76 5.76 2.03646753
586 1 5.76 5.76 -2.03646753
587 1 8.64 5.76 2.03646753
588 1 8.64 5.76 -2.03646753
589 1 11.52 5.76 2.03646753
590 1 11.52 5.76 -2.03646753
591 1 14.4 5.76 2.03646753
592 1 14.4 5.76 -2.03646753
593 1 17.28 5.76 2.03646753
594 1 17.28 5.76 -2.03646753
595 1 20.16 5.76 2.03646753
596 1 20.16 5.76 -2.03646753
597 1 23.04 5.76 2.03646753
598 1 23.04 5.76 -2.03646753
599 1 25.92 5.76 2.03646753
600 1 25.92 5.76 -2.03646753
601 1 -23.04 8.64 2.03646753
602 1 -23.04 8.64 -2.03646753
603 1 -20.16 8.64 2.03646753
604 1 -20.16 8.64 -2.03646753
605 1 -17.28 8.64 2.03646753
606 1 -17.28 8.64 -2.03646753
607 1 -14.4 8.64 2.03646753
608 1 -14.4 8.64 -2.03646753
609 1 -11.52 8.64 2.03646753
610 1 -11.52 8.64 -2.03646753
611 1 -8.64 8.64 2.03646753
612 1 -8.64 8.64 -2.03646753
613 1 -5.76 8.64 2.03646753
614 1 -5.76 8.64 -2.03646753
615 1 -2.88 8.64 2.03646753
616 1 -2.88 8.64 -2.03646753
617 1 2.84217094e-14 8.64 2.03646753
618 1 2.84217094e-14 8.64 -2.03646753
619 1 2.88 8.64 2.03646753
620 1 2.88 8.64 -2.03646753
621 1 5.76 8.64 2.03646753
622 1 5.76 8.64 -2.03646753
623 1 8.64 8.64 2.03646753
624 1 8.64 8.64 -2.03646753
625 1 11.52 8.64 2.03646753
626 1 11.52 8.64 -2.03646753
627 1 14.4 8.64 2.03646753
628 1 14.4 8.64 -2.03646753
629 1 17.28 8.64 2.03646753
630 1 17.28 8.64 -2.03646753
631 1 20.16 8.64 2.03646753
632 1 20.16 8.64 -2.03646753
633 1 23.04 8.64 2.03646753
634 1 23.04 8.64 -2.03646753
635 1 -20.16 11.52 2.03646753
636 1 -20.16 11.52 -2.03646753
637 1 -17.28 11.52 2.03646753
638 1 -17.28 11.52 -2.03646753
639 1 -14.4 11.52 2.03646753
640 1 -14.4 11.52 -2.03646753
641 1 -11.52 11.52 2.03646753
642 1 -11.52 11.52 -2.03646753
643 1 -8.64 11.52 2.03646753
644 1 -8.64 11.52 -2.03646753
645 1 -5.76 11.52 2.03646753
646 1 -5.76 11.52 -2.03646753
647 1 -2.88 11.52 2.03646753
648 1 -2.88 11.52 -2.03646753
649 1 2.84217094e-14 11.52 2.03646753
650 1 2.84217094e-14 11.52 -2.03646753
651 1 2.88 11.52 2.03646753
652 1 2.88 11.52 -2.03646753
653 1 5.76 11.52 2.03646753
654 1 5.76 11.52 -2.03646753
655 1 8.64 11.52 2.03646753
656 1 8.64 11.52 -2.03646753
657 1 11.52 11.52 2.03646753
658 1 11.52 11.52 -2.03646753
659 1 14.4 11.52 2.03646753
660 1 14.4 11.52 -2.03646753
661 1 17.28 11.52 2.03646753
662 1 17.28 11.52 -2.03646753
663 1 20.16 11.52 2.03646753
664 1 20.16 11.52 -2.03646753
665 1 -17.28 14.4 2.03646753
666 1 -17.28 14.4 -2.03646753
667 1 -14.4 14.4 2.03646753
668 1 -14.4 14.4 -2.03646753
669 1 -11.52 14.4 2.03646753
670 1 -11.52 14.4 -2.03646753
671 1 -8.64 14.4 2.03646753
672 1 -8.64 14.4 -2.03646753
673 1 -5.76 14.4 2.03646753
674 1 -5.76 14.4 -2.03646753
675 1 -2.88 14.4 2.03646753
676 1 -2.88 14.4 -2.03646753
677 1 2.84217094e-14 14.4 2.03646753
678 1 2.84217094e-14 14.4 -2.03646753
679 1 2.88 14.4 2.03646753
680 1 2.88 14.4 -2.03646753
681 1 5.76 14.4 2.03646753
682 1 5.76 14.4 -2.03646753
683 1 8.64 14.4 2.03646753
684 1 8.64 14.4 -2.03646753
685 1 11.52 14.4 2.03646753
686 1 11.52 14.4 -2.03646753
687 1 14.4 14.4 2.03646753
688 1 14.4 14.4 -2.03646753
689 1 17.28 14.4 2.03646753
690 1 17.28 14.4 -2.03646753
691 1 -14.4 17.28 2.03646753
692 1 -14.4 17.28 -2.03646753
693 1 -11.52 17.28 2.03646753
694 1 -11.52 17.28 -2.03646753
695 1 -8.64 17.28 2.03646753
696 1 -8.64 17.28 -2.03646753
697 1 -5.76 17.28 2.03646753
698 1 -5.76 17.28 -2.03646753
699 1 -2.88 17.28 2.03646753
700 1 -2.88 17.28 -2.03646753
701 1 2.84217094e-14 17.28 2.03646753
702 1 2.84217094e-14 17.28 -2.03646753
703 1 2.88 17.28 2.03646753
704 1 2.88 17.28 -2.03646753
705 1 5.76 17.28 2.03646753
706 1 5.76 17.28 -2.03646753
707 1 8.64 17.28 2.03646753
708 1 8.64 17.28 -2.03646753
709 1 11.52 17.28 2.03646753
710 1 11.52 17.28 -2.03646753
711 1 14.4 17.28 2.03646753
712 1 14.4 17.28 -2.03646753
713 1 -11.52 20.16 2.03646753
714 1 -11.52 20.16 -2.03646753
715 1 -8.64 20.16 2.03646753
716 1 -8.64 20.16 -2.03646753
717 1 -5.76 20.16 2.03646753
718 1 -5.76 20.16 -2.03646753
719 1 -2.88 20.16 2.03646753
720 1 -2.88 20.16 -2.03646753
721 1 2.84217094e-14 20.16 2.03646753
722 1 2.84217094e-14 20.16 -2.03646753
723 1 2.88 20.16 2.03646753
724 1 2.88 20.16 -2.03646753
725 1 5.76 20.16 2.03646753
726 1 5.76 20.16 -2.03646753
727 1 8.64 20.16 2.03646753
728 1 8.64 20.16 -2.03646753
729 1 11.52 20.16 2.03646753
730 1 11.52 20.16 -2.03646753
731 1 -8.64 23.04 2.03646753
732 1 -8.64 23.04 -2.03646753
733 1 -5.76 23.04 2.03646753
734 1 -5.76 23.04 -2.03646753
735 1 -2.88 23.04 2.03646753
736 1 -2.88 23.04 -2.03646753
737 1 2.84217094e-14 23.04 2.03646753
738 1 2.84217094e-14 23.04 -2.03646753
739 1 2.88 23.04 2.03646753
740 1 2.88 23.04 -2.03646753
741 1 5.76 23.04 2.03646753
742 1 5.76 23.04 -2.03646753
743 1 8.64 23.04 2.03646753
744 1 8.64 23.04 -2.03646753
745 1 -5.76 25.92 2.03646753
746 1 -5.76 25.92 -2.03646753
747 1 -2.88 25.92 2.03646753
748 1 -2.88 25.92 -2.03646753
749 1 2.84217094e-14 25.92 2.03646753
750 1 2.84217094e-14 25.92 -2.03646753
751 1 2.88 25.92 2.03646753
752 1 2.88 25.92 -2.03646753
753 1 5.76 25.92 2.03646753
754 1 5.76 25.92 -2.03646753
755 1 -7.2 -24.48 4.07293506
756 1 -7.2 -24.48 -4.07293506
757 1 -4.32 -24.48 4.07293506
758 1 -4.32 -24.48 -4.07293506
759 1 -1.44 -24.48 4.07293506
760 1 -1.44 -24.48 -4.07293506
761 1 1.44 -24.48 4.07293506
762 1 1.44 -24.48 -4.07293506
763 1 4.32 -24.48 4.07293506
764 1 4.32 -24.48 -4.07293506
765 1 7.2 -24.48 4.07293506
766 1 7.2 -24.48 -4.07293506
767 1 -10.08 -21.6 4.07293506
768 1 -10.08 -21.6 -4.07293506
769 1 -7.2 -21.6 4.07293506
770 1 -7.2 -21.6 -4.07293506
771 1 -4.32 -21.6 4.07293506
772 1 -4.32 -21.6 -4.07293506
773 1 -1.44 -21.6 4.07293506
774 1 -1.44 -21.6 -4.07293506
775 1 1.44 -21.6 4.07293506
776 1 1.44 -21.6 -4.07293506
777 1 4.32 -21.6 4.07293506
778 1 4.32 -21.6 -4.07293506
779 1 7.2 -21.6 4.07293506
780 1 7.2 -21.6 -4.07293506
781 1 10.08 -21.6 4.07293506
782 1 10.08 -21.6 -4.07293506
783 1 -12.96 -18.72 4.07293506
784 1 -12.96 -18.72 -4.07293506
785 1 -10.08 -18.72 4.07293506
786 1 -10.08 -18.72 -4.07293506
787 1 -7.2 -18.72 4.07293506
788 1 -7.2 -18.72 -4.07293506
789 1 -4.32 -18.72 4.07293506
790 1 -4.32 -18.72 -4.07293506
791 1 -1.44 -18.72 4.07293506
792 1 -1.44 -18.72 -4.07293506
793 1 1.44 -18.72 4.07293506
794 1 1.44 -18.72 -4.07293506
795 1 4.32 -18.72 4.07293506
796 1 4.32 -18.72 -4.07293506
797 1 7.2 -18.72 4.07293506
798 1 7.2 -18.72 -4.07293506
799 1 10.08 -18.72 4.07293506
800 1 10.08 -18.72 -4.07293506
801 1 12.96 -18.72 4.07293506
802 1 12.96 -18.72 -4.07293506
803 1 -15.84 -15.84 4.07293506
804 1 -15.84 -15.84 -4.07293506
805 1 -12.96 -15.84 4.07293506
806 1 -12.96 -15.84 -4.07293506
807 1 -10.08 -15.84 4.07293506
808 1 -10.08 -15.84 -4.07293506
809 1 -7.2 -15.84 4.07293506
810 1 -7.2 -15.84 -4.07293506
811 1 -4.32 -15.84 4.07293506
812 1 -4.32 -15.84 -4.07293506
813 1 -1.44 -15.84 4.07293506
814 1 -1.44 -15.84 -4.07293506
815 1 1.44 -15.84 4.07293506
816 1 1.44 -15.84 -4.07293506
817 1 4.32 -15.84 4.07293506
818 1 4.32 -15.84 -4.07293506
819 1 7.2 -15.84 4.07293506
820 1 7.2 -15.84 -4.07293506
821 1 10.08 -15.84 4.07293506
822 1 10.08 -15.84 -4.07293506
823 1 12.96 -15.84 4.07293506
824 1 12.96 -15.84 -4.07293506
825 1 15.84 -15.84 4.07293506
826 1 15.84 -15.84 -4.07293506
827 1 -18.72 -12.96 4.07293506
828 1 -18.72 -12.96 -4.07293506
829 1 -15.84 -12.96 4.07293506
830 1 -15.84 -12.96 -4.07293506
831 1 -12.96 -12.96 4.07293506
832 1 -12.96 -12.96 -4.07293506
833 1 -10.08 -12.96 4.07293506
834 1 -10.08 -12.96 -4.07293506
835 1 -7.2 -12.96 4.07293506
836 1 -7.2 -12.96 -4.07293506
837 1 -4.32 -12.96 4.07293506
838 1 -4.32 -12.96 -4.07293506
839 1 -1.44 -12.96 4.07293506
840 1 -1.44 -12.96 -4.07293506
841 1 1.44 -12.96 4.07293506
842 1 1.44 -12.96 -4.07293506
843 1 4.32 -12.96 4.07293506
844 1 4.32 -12.96 -4.07293506
845 1 7.2 -12.96 4.07293506
846 1 7.2 -12.96 -4.07293506
847 1 10.08 -12.96 4.07293506
848 1 10.08 -12.96 -4.07293506
849 1 12.96 -12.96 4.07293506
850 1 12.96 -12.96 -4.07293506
851 1 15.84 -12.96 4.07293506
852 1 15.84 -12.96 -4.07293506
853 1 18.72 -12.96 4.07293506
854 1 18.72 -12.96 -4.07293506
855 1 -21.6 -10.08 4.07293506
856 1 -21.6 -10.08 -4.07293506
857 1 -18.72 -10.08 4.07293506
858 1 -18.72 -10.08 -4.07293506
859 1 -15.84 -10.08 4.07293506
860 1 -15.84 -10.08 -4.07293506
861 1 -12.96 -10.08 4.07293506
862 1 -12.96 -10.08 -4.07293506
863 1 -10.08 -10.08 4.07293506
864 1 -10.08 -10.08 -4.07293506
865 1 -7.2 -10.08 4.07293506
866 1 -7.2 -10.08 -4.07293506
867 1 -4.32 -10.08 4.07293506
868 1 -4.32 -10.08 -4.07293506
869 1 -1.44 -10.08 4.07293506
870 1 -1.44 -10.08 -4.07293506
871 1 1.44 -10.08 4.07293506
872 1 1.44 -10.08 -4.07293506
873 1 4.32 -10.08 4.07293506
874 1 4.32 -10.08 -4.07293506
875 1 7.2 -10.08 4.07293506
876 1 7.2 -10.08 -4.07293506
877 1 10.08 -10.08 4.07293506
878 1 10.08 -10.08 -4.07293506
879 1 12.96 -10.08 4.07293506
880 1 12.96 -10.08 -4.07293506
881 1 15.84 -10.08 4.07293506
882 1 15.84 -10.08 -4.07293506
883 1 18.72 -10.08 4.07293506
884 1 18.72 -10.08 -4.07293506
885 1 21.6 -10.08 4.07293506
886 1 21.6 -10.08 -4.07293506
887 1 -24.48 -7.2 4.07293506
888 1 -24.48 -7.2 -4.07293506
889 1 -21.6 -7.2 4.07293506
890 1 -21.6 -7.2 -4.07293506
891 1 -18.72 -7.2 4.07293506
892 1 -18.72 -7.2 -4.07293506
893 1 -15.84 -7.2 4.07293506
894 1 -15.84 -7.2 -4.07293506
895 1 -12.96 -7.2 4.07293506
896 1 -12.96 -7.2 -4.07293506
897 1 -10.08 -7.2 4.07293506
898 1 -10.08 -7.2 -4.07293506
899 1 -7.2 -7.2 4.07293506
900 1 -7.2 -7.2 -4.07293506
901 1 -4.32 -7.2 4.07293506
902 1 -4.32 -7.2 -4.07293506
903 1 -1.44 -7.2 4.07293506
904 1 -1.44 -7.2 -4.07293506
905 1 1.44 -7.2 4.07293506
906 1 1.44 -7.2 -4.07293506
907 1 4.32 -7.2 4.07293506
908 1 4.32 -7.2 -4.07293506
909 1 7.2 -7.2 4.07293506
910 1 7.2 -7.2 -4.07293506
911 1 10.08 -7.2 4.07293506
912 1 10.08 -7.2 -4.07293506
913 1 12.96 -7.2 4.07293506
914 1 12.96 -7.2 -4.07293506
915 1 15.84 -7.2 4.07293506
916 1 15.84 -7.2 -4.07293506
917 1 18.72 -7.2 4.07293506
918 1 18.72 -7.2 -4.07293506
919 1 21.6 -7.2 4.07293506
920 1 21.6 -7.2 -4.07293506
921 1 24.48 -7.2 4.07293506
922 1 24.48 -7.2 -4.07293506
923 1 -24.48 -4.32 4.07293506
924 1 -24.48 -4.32 -4.07293506
925 1 -21.6 -4.32 4.07293506
926 1 -21.6 -4.32 -4.07293506
927 1 -18.72 -4.32 4.07293506
928 1 -18.72 -4.32 -4.07293506
929 1 -15.84 -4.32 4.07293506
930 1 -15.84 -4.32 -4.07293506
931 1 -12.96 -4.32 4.07293506
932 1 -12.96 -4.32 -4.07293506
933 1 -10.08 -4.32 4.07293506
934 1 -10.08 -4.32 -4.07293506
935 1 -7.2 -4.32 4.07293506
936 1 -7.2 -4.32 -4.07293506
937 1 -4.32 -4.32 4.07293506
938 1 -4.32 -4.32 -4.07293506
939 1 -1.44 -4.32 4.07293506
940 1 -1.44 -4.32 -4.07293506
941 1 1.44 -4.32 4.07293506
942 1 1.44 -4.32 -4.07293506
943 1 4.32 -4.32 4.07293506
944 1 4.32 -4.32 -4.07293506
945 1 7.2 -4.32 4.07293506
946 1 7.2 -4.32 -4.07293506
947 1 10.08 -4.32 4.07293506
948 1 10.08 -4.32 -4.07293506
949 1 12.96 -4.32 4.07293506
950 1 12.96 -4.32 -4.07293506
951 1 15.84 -4.32 4.07293506
952 1 15.84 -4.32 -4.07293506
953 1 18.72 -4.32 4.07293506
954 1 18.72 -4.32 -4.07293506
955 1 21.6 -4.32 4.07293506
956 1 21.6 -4.32 -4.07293506
957 1 24.48 -4.32 4.07293506
958 1 24.48 -4.32 -4.07293506
959 1 -24.48 -1.44 4.07293506
960 1 -24.48 -1.44 -4.07293506
961 1 -21.6 -1.44 4.07293506
962 1 -21.6 -1.44 -4.07293506
963 1 -18.72 -1.44 4.07293506
964 1 -18.72 -1.44 -4.07293506
965 1 -15.84 -1.44 4.07293506
966 1 -15.84 -1.44 -4.07293506
967 1 -12.96 -1.44 4.07293506
968 1 -12.96 -1.44 -4.07293506
969 1 -10.08 -1.44 4.07293506
970 1 -10.08 -1.44 -4.07293506
971 1 -7.2 -1.44 4.07293506
972 1 -7.2 -1.44 -4.07293506
973 1 -4.32 -1.44 4.07293506
974 1 -4.32 -1.44 -4.07293506
975 1 -1.44 -1.44 4.07293506
976 1 -1.44 -1.44 -4.07293506
977 1 1.44 -1.44 4.07293506
978 1 1.44 -1.44 -4.07293506
979 1 4.32 -1.44 4.07293506
980 1 4.32 -1.44 -4.07293506
981 1 7.2 -1.44 4.07293506
982 1 7.2 -1.44 -4.07293506
983 1 10.08 -1.44 4.07293506
984 1 10.08 -1.44 -4.07293506
985 1 12.96 -1.44 4.07293506
986 1 12.96 -1.44 -4.07293506
987 1 15.84 -1.44 4.07293506
988 1 15.84 -1.44 -4.07293506
989 1 18.72 -1.44 4.07293506
990 1 18.72 -1.44 -4.07293506
991 1 21.6 -1.44 4.07293506
992 1 21.6 -1.44 -4.07293506
993 1 24.48 -1.44 4.07293506
994 1 24.48 -1.44 -4.07293506
995 1 -24.48 1.44 4.07293506
996 1 -24.48 1.44 -4.07293506
997 1 -21.6 1.44 4.07293506
998 1 -21.6 1.44 -4.07293506
999 1 -18.72 1.44 4.07293506
1000 1 -18.72 1.44 -4.07293506
1001 1 -15.84 1.44 4.07293506
1002 1 -15.84 1.44 -4.07293506
1003 1 -12.96 1.44 4.07293506
1004 1 -12.96 1.44 -4.07293506
1005 1 -10.08 1.44 4.07293506
1006 1 -10.08 1.44 -4.07293506
1007 1 -7.2 1.44 4.07293506
1008 1 -7.2 1.44 -4.07293506
1009 1 -4.32 1.44 4.07293506
1010 1 -4.32 1.44 -4.07293506
1011 1 -1.44 1.44 4.07293506
1012 1 -1.44 1.44 -4.07293506
1013 1 1.44 1.44 4.07293506
1014 1 1.44 1.44 -4.07293506
1015 1 4.32 1.44 4.07293506
1016 1 4.32 1.44 -4.07293506
1017 1 7.2 1.44 4.07293506
1018 1 7.2 1.44 -4.07293506
1019 1 10.08 1.44 4.07293506
1020 1 10.08 1.44 -4.07293506
1021 1 12.96 1.44 4.07293506
1022 1 12.96 1.44 -4.07293506
1023 1 15.84 1.44 4.07293506
1024 1 15.84 1.44 -4.07293506
1025 1 18.72 1.44 4.07293506
1026 1 18.72 1.44 -4.07293506
1027 1 21.6 1.44 4.07293506
1028 1 21.6 1.44 -4.07293506
1029 1 24.48 1.44 4.07293506
1030 1 24.48 1.44 -4.07293506
1031 1 -24.48 4.32 4.07293506
1032 1 -24.48 4.32 -4.07293506
1033 1 -21.6 4.32 4.07293506
1034 1 -21.6 4.32 -4.07293506
1035 1 -18.72 4.32 4.07293506
1036 1 -18.72 4.32 -4.07293506
1037 1 -15.84 4.32 4.07293506
1038 1 -15.84 4.32 -4.07293506
1039 1 -12.96 4.32 4.07293506
1040 1 -12.96 4.32 -4.07293506
1041 1 -10.08 4.32 4.07293506
1042 1 -10.08 4.32 -4.07293506
1043 1 -7.2 4.32 4.07293506
1044 1 -7.2 4.32 -4.07293506
1045 1 -4.32 4.32 4.07293506
1046 1 -4.32 4.32 -4.07293506
1047 1 -1.44 4.32 4.07293506
1048 1 -1.44 4.32 -4.07293506
1049 1 1.44 4.32 4.07293506
1050 1 1.44 4.32 -4.07293506
1051 1 4.32 4.32 4.07293506
1052 1 4.32 4.32 -4.07293506
1053 1 7.2 4.32 4.07293506
1054 1 7.2 4.32 -4.07293506
1055 1 10.08 4.32 4.07293506
1056 1 10.08 4.32 -4.07293506
1057 1 12.96 4.32 4.07293506
1058 1 12.96 4.32 -4.07293506
1059 1 15.84 4.32 4.07293506
1060 1 15.84 4.32 -4.07293506
1061 1 18.72 4.32 4.07293506
1062 1 18.72 4.32 -4.07293506
1063 1 21.6 4.32 4.07293506
1064 1 21.6 4.32 -4.07293506
1065 1 24.48 4.32 4.07293506
1066 1 24.48 4.32 -4.07293506
1067 1 -24.48 7.2 4.07293506
1068 1 -24.48 7.2 -4.07293506
1069 1 -21.6 7.2 4.07293506
1070 1 -21.6 7.2 -4.07293506
1071 1 -18.72 7.2 4.07293506
1072 1 -18.72 7.2 -4.07293506
1073 1 -15.84 7.2 4.07293506
1074 1 -15.84 7.2 -4.07293506
1075 1 -12.96 7.2 4.07293506
1076 1 -12.96 7.2 -4.07293506
1077 1 -10.08 7.2 4.07293506
1078 1 -10.08 7.2 -4.07293506